 variables= "x","y", 
 zone i=         200 j=         200 F=POINT
  0.49999999986865457       0.49999999986865457     
   1.4999999996099358       0.49999999986865457     
   2.4999999993590944       0.49999999986865457     
   3.4999999991160538       0.49999999986865457     
   4.4999999988807300       0.49999999986865457     
   5.4999999986530472       0.49999999986865457     
   6.4999999984329273       0.49999999986865457     
   7.4999999982202876       0.49999999986865457     
   8.4999999980150420       0.49999999986865457     
   9.4999999978171310       0.49999999986865457     
   10.499999997626462       0.49999999986865457     
   11.499999997442934       0.49999999986865457     
   12.499999997266489       0.49999999986865457     
   13.499999997097055       0.49999999986865457     
   14.499999996934541       0.49999999986865457     
   15.499999996778858       0.49999999986865457     
   16.499999996629931       0.49999999986865457     
   17.499999996487695       0.49999999986865457     
   18.499999996352059       0.49999999986865457     
   19.499999996222925       0.49999999986865457     
   20.499999996100250       0.49999999986865457     
   21.499999995983934       0.49999999986865457     
   22.499999995873885       0.49999999986865457     
   23.499999995770054       0.49999999986865457     
   24.499999995672340       0.49999999986865457     
   25.499999995580652       0.49999999986865457     
   26.499999995494932       0.49999999986865457     
   27.499999995415095       0.49999999986865457     
   28.499999995341057       0.49999999986865457     
   29.499999995272738       0.49999999986865457     
   30.499999995210057       0.49999999986865457     
   31.499999995152933       0.49999999986865457     
   32.499999995101291       0.49999999986865457     
   33.499999995055049       0.49999999986865457     
   34.499999995014136       0.49999999986865457     
   35.499999994978452       0.49999999986865457     
   36.499999994947942       0.49999999986865457     
   37.499999994922497       0.49999999986865457     
   38.499999994902055       0.49999999986865457     
   39.499999994886537       0.49999999986865457     
   40.499999994875864       0.49999999986865457     
   41.499999994869938       0.49999999986865457     
   42.499999994868702       0.49999999986865457     
   43.499999994872056       0.49999999986865457     
   44.499999994879929       0.49999999986865457     
   45.499999994892256       0.49999999986865457     
   46.499999994908940       0.49999999986865457     
   47.499999994929894       0.49999999986865457     
   48.499999994955061       0.49999999986865457     
   49.499999994984336       0.49999999986865457     
   50.499999995017660       0.49999999986865457     
   51.499999995054935       0.49999999986865457     
   52.499999995096090       0.49999999986865457     
   53.499999995141053       0.49999999986865457     
   54.499999995189739       0.49999999986865457     
   55.499999995242057       0.49999999986865457     
   56.499999995297941       0.49999999986865457     
   57.499999995357300       0.49999999986865457     
   58.499999995420062       0.49999999986865457     
   59.499999995486135       0.49999999986865457     
   60.499999995555456       0.49999999986865457     
   61.499999995627931       0.49999999986865457     
   62.499999995703497       0.49999999986865457     
   63.499999995782055       0.49999999986865457     
   64.499999995863533       0.49999999986865457     
   65.499999995947860       0.49999999986865457     
   66.499999996034944       0.49999999986865457     
   67.499999996124700       0.49999999986865457     
   68.499999996217070       0.49999999986865457     
   69.499999996311942       0.49999999986865457     
   70.499999996409258       0.49999999986865457     
   71.499999996508933       0.49999999986865457     
   72.499999996610896       0.49999999986865457     
   73.499999996715061       0.49999999986865457     
   74.499999996821344       0.49999999986865457     
   75.499999996929660       0.49999999986865457     
   76.499999997039936       0.49999999986865457     
   77.499999997152088       0.49999999986865457     
   78.499999997266059       0.49999999986865457     
   79.499999997381735       0.49999999986865457     
   80.499999997499060       0.49999999986865457     
   81.499999997617948       0.49999999986865457     
   82.499999997738300       0.49999999986865457     
   83.499999997860058       0.49999999986865457     
   84.499999997983139       0.49999999986865457     
   85.499999998107455       0.49999999986865457     
   86.499999998232937       0.49999999986865457     
   87.499999998359499       0.49999999986865457     
   88.499999998487056       0.49999999986865457     
   89.499999998615536       0.49999999986865457     
   90.499999998744855       0.49999999986865457     
   91.499999998874927       0.49999999986865457     
   92.499999999005695       0.49999999986865457     
   93.499999999137060       0.49999999986865457     
   94.499999999268937       0.49999999986865457     
   95.499999999401268       0.49999999986865457     
   96.499999999533941       0.49999999986865457     
   97.499999999666898       0.49999999986865457     
   98.499999999800053       0.49999999986865457     
   99.499999999933337       0.49999999986865457     
   100.50000000006666       0.49999999986865457     
   101.50000000019995       0.49999999986865457     
   102.50000000033310       0.49999999986865457     
   103.50000000046606       0.49999999986865457     
   104.50000000059873       0.49999999986865457     
   105.50000000073106       0.49999999986865457     
   106.50000000086294       0.49999999986865457     
   107.50000000099431       0.49999999986865457     
   108.50000000112507       0.49999999986865457     
   109.50000000125515       0.49999999986865457     
   110.50000000138446       0.49999999986865457     
   111.50000000151294       0.49999999986865457     
   112.50000000164050       0.49999999986865457     
   113.50000000176706       0.49999999986865457     
   114.50000000189254       0.49999999986865457     
   115.50000000201686       0.49999999986865457     
   116.50000000213994       0.49999999986865457     
   117.50000000226170       0.49999999986865457     
   118.50000000238205       0.49999999986865457     
   119.50000000250094       0.49999999986865457     
   120.50000000261826       0.49999999986865457     
   121.50000000273394       0.49999999986865457     
   122.50000000284791       0.49999999986865457     
   123.50000000296006       0.49999999986865457     
   124.50000000307034       0.49999999986865457     
   125.50000000317866       0.49999999986865457     
   126.50000000328494       0.49999999986865457     
   127.50000000338910       0.49999999986865457     
   128.50000000349104       0.49999999986865457     
   129.50000000359074       0.49999999986865457     
   130.50000000368806       0.49999999986865457     
   131.50000000378293       0.49999999986865457     
   132.50000000387530       0.49999999986865457     
   133.50000000396506       0.49999999986865457     
   134.50000000405214       0.49999999986865457     
   135.50000000413647       0.49999999986865457     
   136.50000000421795       0.49999999986865457     
   137.50000000429651       0.49999999986865457     
   138.50000000437205       0.49999999986865457     
   139.50000000444453       0.49999999986865457     
   140.50000000451385       0.49999999986865457     
   141.50000000457993       0.49999999986865457     
   142.50000000464269       0.49999999986865457     
   143.50000000470206       0.49999999986865457     
   144.50000000475794       0.49999999986865457     
   145.50000000481026       0.49999999986865457     
   146.50000000485895       0.49999999986865457     
   147.50000000490391       0.49999999986865457     
   148.50000000494506       0.49999999986865457     
   149.50000000498233       0.49999999986865457     
   150.50000000501566       0.49999999986865457     
   151.50000000504494       0.49999999986865457     
   152.50000000507009       0.49999999986865457     
   153.50000000509107       0.49999999986865457     
   154.50000000510772       0.49999999986865457     
   155.50000000512006       0.49999999986865457     
   156.50000000512796       0.49999999986865457     
   157.50000000513131       0.49999999986865457     
   158.50000000513006       0.49999999986865457     
   159.50000000512415       0.49999999986865457     
   160.50000000511346       0.49999999986865457     
   161.50000000509795       0.49999999986865457     
   162.50000000507751       0.49999999986865457     
   163.50000000505207       0.49999999986865457     
   164.50000000502155       0.49999999986865457     
   165.50000000498585       0.49999999986865457     
   166.50000000494495       0.49999999986865457     
   167.50000000489871       0.49999999986865457     
   168.50000000484707       0.49999999986865457     
   169.50000000478994       0.49999999986865457     
   170.50000000472727       0.49999999986865457     
   171.50000000465894       0.49999999986865457     
   172.50000000458490       0.49999999986865457     
   173.50000000450507       0.49999999986865457     
   174.50000000441935       0.49999999986865457     
   175.50000000432766       0.49999999986865457     
   176.50000000422995       0.49999999986865457     
   177.50000000412612       0.49999999986865457     
   178.50000000401607       0.49999999986865457     
   179.50000000389974       0.49999999986865457     
   180.50000000377707       0.49999999986865457     
   181.50000000364793       0.49999999986865457     
   182.50000000351230       0.49999999986865457     
   183.50000000337008       0.49999999986865457     
   184.50000000322115       0.49999999986865457     
   185.50000000306545       0.49999999986865457     
   186.50000000290294       0.49999999986865457     
   187.50000000273351       0.49999999986865457     
   188.50000000255707       0.49999999986865457     
   189.50000000237355       0.49999999986865457     
   190.50000000218287       0.49999999986865457     
   191.50000000198497       0.49999999986865457     
   192.50000000177971       0.49999999986865457     
   193.50000000156706       0.49999999986865457     
   194.50000000134696       0.49999999986865457     
   195.50000000111925       0.49999999986865457     
   196.50000000088394       0.49999999986865457     
   197.50000000064091       0.49999999986865457     
   198.50000000039006       0.49999999986865457     
   199.50000000013134       0.49999999986865457     
  0.49999999986865457        1.4999999996099358     
   1.4999999996099358        1.4999999996099358     
   2.4999999993590944        1.4999999996099358     
   3.4999999991160538        1.4999999996099358     
   4.4999999988807300        1.4999999996099358     
   5.4999999986530472        1.4999999996099358     
   6.4999999984329273        1.4999999996099358     
   7.4999999982202876        1.4999999996099358     
   8.4999999980150420        1.4999999996099358     
   9.4999999978171310        1.4999999996099358     
   10.499999997626462        1.4999999996099358     
   11.499999997442934        1.4999999996099358     
   12.499999997266489        1.4999999996099358     
   13.499999997097055        1.4999999996099358     
   14.499999996934541        1.4999999996099358     
   15.499999996778858        1.4999999996099358     
   16.499999996629931        1.4999999996099358     
   17.499999996487695        1.4999999996099358     
   18.499999996352059        1.4999999996099358     
   19.499999996222925        1.4999999996099358     
   20.499999996100250        1.4999999996099358     
   21.499999995983934        1.4999999996099358     
   22.499999995873885        1.4999999996099358     
   23.499999995770054        1.4999999996099358     
   24.499999995672340        1.4999999996099358     
   25.499999995580652        1.4999999996099358     
   26.499999995494932        1.4999999996099358     
   27.499999995415095        1.4999999996099358     
   28.499999995341057        1.4999999996099358     
   29.499999995272738        1.4999999996099358     
   30.499999995210057        1.4999999996099358     
   31.499999995152933        1.4999999996099358     
   32.499999995101291        1.4999999996099358     
   33.499999995055049        1.4999999996099358     
   34.499999995014136        1.4999999996099358     
   35.499999994978452        1.4999999996099358     
   36.499999994947942        1.4999999996099358     
   37.499999994922497        1.4999999996099358     
   38.499999994902055        1.4999999996099358     
   39.499999994886537        1.4999999996099358     
   40.499999994875864        1.4999999996099358     
   41.499999994869938        1.4999999996099358     
   42.499999994868702        1.4999999996099358     
   43.499999994872056        1.4999999996099358     
   44.499999994879929        1.4999999996099358     
   45.499999994892256        1.4999999996099358     
   46.499999994908940        1.4999999996099358     
   47.499999994929894        1.4999999996099358     
   48.499999994955061        1.4999999996099358     
   49.499999994984336        1.4999999996099358     
   50.499999995017660        1.4999999996099358     
   51.499999995054935        1.4999999996099358     
   52.499999995096090        1.4999999996099358     
   53.499999995141053        1.4999999996099358     
   54.499999995189739        1.4999999996099358     
   55.499999995242057        1.4999999996099358     
   56.499999995297941        1.4999999996099358     
   57.499999995357300        1.4999999996099358     
   58.499999995420062        1.4999999996099358     
   59.499999995486135        1.4999999996099358     
   60.499999995555456        1.4999999996099358     
   61.499999995627931        1.4999999996099358     
   62.499999995703497        1.4999999996099358     
   63.499999995782055        1.4999999996099358     
   64.499999995863533        1.4999999996099358     
   65.499999995947860        1.4999999996099358     
   66.499999996034944        1.4999999996099358     
   67.499999996124700        1.4999999996099358     
   68.499999996217070        1.4999999996099358     
   69.499999996311942        1.4999999996099358     
   70.499999996409258        1.4999999996099358     
   71.499999996508933        1.4999999996099358     
   72.499999996610896        1.4999999996099358     
   73.499999996715061        1.4999999996099358     
   74.499999996821344        1.4999999996099358     
   75.499999996929660        1.4999999996099358     
   76.499999997039936        1.4999999996099358     
   77.499999997152088        1.4999999996099358     
   78.499999997266059        1.4999999996099358     
   79.499999997381735        1.4999999996099358     
   80.499999997499060        1.4999999996099358     
   81.499999997617948        1.4999999996099358     
   82.499999997738300        1.4999999996099358     
   83.499999997860058        1.4999999996099358     
   84.499999997983139        1.4999999996099358     
   85.499999998107455        1.4999999996099358     
   86.499999998232937        1.4999999996099358     
   87.499999998359499        1.4999999996099358     
   88.499999998487056        1.4999999996099358     
   89.499999998615536        1.4999999996099358     
   90.499999998744855        1.4999999996099358     
   91.499999998874927        1.4999999996099358     
   92.499999999005695        1.4999999996099358     
   93.499999999137060        1.4999999996099358     
   94.499999999268937        1.4999999996099358     
   95.499999999401268        1.4999999996099358     
   96.499999999533941        1.4999999996099358     
   97.499999999666898        1.4999999996099358     
   98.499999999800053        1.4999999996099358     
   99.499999999933337        1.4999999996099358     
   100.50000000006666        1.4999999996099358     
   101.50000000019995        1.4999999996099358     
   102.50000000033310        1.4999999996099358     
   103.50000000046606        1.4999999996099358     
   104.50000000059873        1.4999999996099358     
   105.50000000073106        1.4999999996099358     
   106.50000000086294        1.4999999996099358     
   107.50000000099431        1.4999999996099358     
   108.50000000112507        1.4999999996099358     
   109.50000000125515        1.4999999996099358     
   110.50000000138446        1.4999999996099358     
   111.50000000151294        1.4999999996099358     
   112.50000000164050        1.4999999996099358     
   113.50000000176706        1.4999999996099358     
   114.50000000189254        1.4999999996099358     
   115.50000000201686        1.4999999996099358     
   116.50000000213994        1.4999999996099358     
   117.50000000226170        1.4999999996099358     
   118.50000000238205        1.4999999996099358     
   119.50000000250094        1.4999999996099358     
   120.50000000261826        1.4999999996099358     
   121.50000000273394        1.4999999996099358     
   122.50000000284791        1.4999999996099358     
   123.50000000296006        1.4999999996099358     
   124.50000000307034        1.4999999996099358     
   125.50000000317866        1.4999999996099358     
   126.50000000328494        1.4999999996099358     
   127.50000000338910        1.4999999996099358     
   128.50000000349104        1.4999999996099358     
   129.50000000359074        1.4999999996099358     
   130.50000000368806        1.4999999996099358     
   131.50000000378293        1.4999999996099358     
   132.50000000387530        1.4999999996099358     
   133.50000000396506        1.4999999996099358     
   134.50000000405214        1.4999999996099358     
   135.50000000413647        1.4999999996099358     
   136.50000000421795        1.4999999996099358     
   137.50000000429651        1.4999999996099358     
   138.50000000437205        1.4999999996099358     
   139.50000000444453        1.4999999996099358     
   140.50000000451385        1.4999999996099358     
   141.50000000457993        1.4999999996099358     
   142.50000000464269        1.4999999996099358     
   143.50000000470206        1.4999999996099358     
   144.50000000475794        1.4999999996099358     
   145.50000000481026        1.4999999996099358     
   146.50000000485895        1.4999999996099358     
   147.50000000490391        1.4999999996099358     
   148.50000000494506        1.4999999996099358     
   149.50000000498233        1.4999999996099358     
   150.50000000501566        1.4999999996099358     
   151.50000000504494        1.4999999996099358     
   152.50000000507009        1.4999999996099358     
   153.50000000509107        1.4999999996099358     
   154.50000000510772        1.4999999996099358     
   155.50000000512006        1.4999999996099358     
   156.50000000512796        1.4999999996099358     
   157.50000000513131        1.4999999996099358     
   158.50000000513006        1.4999999996099358     
   159.50000000512415        1.4999999996099358     
   160.50000000511346        1.4999999996099358     
   161.50000000509795        1.4999999996099358     
   162.50000000507751        1.4999999996099358     
   163.50000000505207        1.4999999996099358     
   164.50000000502155        1.4999999996099358     
   165.50000000498585        1.4999999996099358     
   166.50000000494495        1.4999999996099358     
   167.50000000489871        1.4999999996099358     
   168.50000000484707        1.4999999996099358     
   169.50000000478994        1.4999999996099358     
   170.50000000472727        1.4999999996099358     
   171.50000000465894        1.4999999996099358     
   172.50000000458490        1.4999999996099358     
   173.50000000450507        1.4999999996099358     
   174.50000000441935        1.4999999996099358     
   175.50000000432766        1.4999999996099358     
   176.50000000422995        1.4999999996099358     
   177.50000000412612        1.4999999996099358     
   178.50000000401607        1.4999999996099358     
   179.50000000389974        1.4999999996099358     
   180.50000000377707        1.4999999996099358     
   181.50000000364793        1.4999999996099358     
   182.50000000351230        1.4999999996099358     
   183.50000000337008        1.4999999996099358     
   184.50000000322115        1.4999999996099358     
   185.50000000306545        1.4999999996099358     
   186.50000000290294        1.4999999996099358     
   187.50000000273351        1.4999999996099358     
   188.50000000255707        1.4999999996099358     
   189.50000000237355        1.4999999996099358     
   190.50000000218287        1.4999999996099358     
   191.50000000198497        1.4999999996099358     
   192.50000000177971        1.4999999996099358     
   193.50000000156706        1.4999999996099358     
   194.50000000134696        1.4999999996099358     
   195.50000000111925        1.4999999996099358     
   196.50000000088394        1.4999999996099358     
   197.50000000064091        1.4999999996099358     
   198.50000000039006        1.4999999996099358     
   199.50000000013134        1.4999999996099358     
  0.49999999986865457        2.4999999993590944     
   1.4999999996099358        2.4999999993590944     
   2.4999999993590944        2.4999999993590944     
   3.4999999991160538        2.4999999993590944     
   4.4999999988807300        2.4999999993590944     
   5.4999999986530472        2.4999999993590944     
   6.4999999984329273        2.4999999993590944     
   7.4999999982202876        2.4999999993590944     
   8.4999999980150420        2.4999999993590944     
   9.4999999978171310        2.4999999993590944     
   10.499999997626462        2.4999999993590944     
   11.499999997442934        2.4999999993590944     
   12.499999997266489        2.4999999993590944     
   13.499999997097055        2.4999999993590944     
   14.499999996934541        2.4999999993590944     
   15.499999996778858        2.4999999993590944     
   16.499999996629931        2.4999999993590944     
   17.499999996487695        2.4999999993590944     
   18.499999996352059        2.4999999993590944     
   19.499999996222925        2.4999999993590944     
   20.499999996100250        2.4999999993590944     
   21.499999995983934        2.4999999993590944     
   22.499999995873885        2.4999999993590944     
   23.499999995770054        2.4999999993590944     
   24.499999995672340        2.4999999993590944     
   25.499999995580652        2.4999999993590944     
   26.499999995494932        2.4999999993590944     
   27.499999995415095        2.4999999993590944     
   28.499999995341057        2.4999999993590944     
   29.499999995272738        2.4999999993590944     
   30.499999995210057        2.4999999993590944     
   31.499999995152933        2.4999999993590944     
   32.499999995101291        2.4999999993590944     
   33.499999995055049        2.4999999993590944     
   34.499999995014136        2.4999999993590944     
   35.499999994978452        2.4999999993590944     
   36.499999994947942        2.4999999993590944     
   37.499999994922497        2.4999999993590944     
   38.499999994902055        2.4999999993590944     
   39.499999994886537        2.4999999993590944     
   40.499999994875864        2.4999999993590944     
   41.499999994869938        2.4999999993590944     
   42.499999994868702        2.4999999993590944     
   43.499999994872056        2.4999999993590944     
   44.499999994879929        2.4999999993590944     
   45.499999994892256        2.4999999993590944     
   46.499999994908940        2.4999999993590944     
   47.499999994929894        2.4999999993590944     
   48.499999994955061        2.4999999993590944     
   49.499999994984336        2.4999999993590944     
   50.499999995017660        2.4999999993590944     
   51.499999995054935        2.4999999993590944     
   52.499999995096090        2.4999999993590944     
   53.499999995141053        2.4999999993590944     
   54.499999995189739        2.4999999993590944     
   55.499999995242057        2.4999999993590944     
   56.499999995297941        2.4999999993590944     
   57.499999995357300        2.4999999993590944     
   58.499999995420062        2.4999999993590944     
   59.499999995486135        2.4999999993590944     
   60.499999995555456        2.4999999993590944     
   61.499999995627931        2.4999999993590944     
   62.499999995703497        2.4999999993590944     
   63.499999995782055        2.4999999993590944     
   64.499999995863533        2.4999999993590944     
   65.499999995947860        2.4999999993590944     
   66.499999996034944        2.4999999993590944     
   67.499999996124700        2.4999999993590944     
   68.499999996217070        2.4999999993590944     
   69.499999996311942        2.4999999993590944     
   70.499999996409258        2.4999999993590944     
   71.499999996508933        2.4999999993590944     
   72.499999996610896        2.4999999993590944     
   73.499999996715061        2.4999999993590944     
   74.499999996821344        2.4999999993590944     
   75.499999996929660        2.4999999993590944     
   76.499999997039936        2.4999999993590944     
   77.499999997152088        2.4999999993590944     
   78.499999997266059        2.4999999993590944     
   79.499999997381735        2.4999999993590944     
   80.499999997499060        2.4999999993590944     
   81.499999997617948        2.4999999993590944     
   82.499999997738300        2.4999999993590944     
   83.499999997860058        2.4999999993590944     
   84.499999997983139        2.4999999993590944     
   85.499999998107455        2.4999999993590944     
   86.499999998232937        2.4999999993590944     
   87.499999998359499        2.4999999993590944     
   88.499999998487056        2.4999999993590944     
   89.499999998615536        2.4999999993590944     
   90.499999998744855        2.4999999993590944     
   91.499999998874927        2.4999999993590944     
   92.499999999005695        2.4999999993590944     
   93.499999999137060        2.4999999993590944     
   94.499999999268937        2.4999999993590944     
   95.499999999401268        2.4999999993590944     
   96.499999999533941        2.4999999993590944     
   97.499999999666898        2.4999999993590944     
   98.499999999800053        2.4999999993590944     
   99.499999999933337        2.4999999993590944     
   100.50000000006666        2.4999999993590944     
   101.50000000019995        2.4999999993590944     
   102.50000000033310        2.4999999993590944     
   103.50000000046606        2.4999999993590944     
   104.50000000059873        2.4999999993590944     
   105.50000000073106        2.4999999993590944     
   106.50000000086294        2.4999999993590944     
   107.50000000099431        2.4999999993590944     
   108.50000000112507        2.4999999993590944     
   109.50000000125515        2.4999999993590944     
   110.50000000138446        2.4999999993590944     
   111.50000000151294        2.4999999993590944     
   112.50000000164050        2.4999999993590944     
   113.50000000176706        2.4999999993590944     
   114.50000000189254        2.4999999993590944     
   115.50000000201686        2.4999999993590944     
   116.50000000213994        2.4999999993590944     
   117.50000000226170        2.4999999993590944     
   118.50000000238205        2.4999999993590944     
   119.50000000250094        2.4999999993590944     
   120.50000000261826        2.4999999993590944     
   121.50000000273394        2.4999999993590944     
   122.50000000284791        2.4999999993590944     
   123.50000000296006        2.4999999993590944     
   124.50000000307034        2.4999999993590944     
   125.50000000317866        2.4999999993590944     
   126.50000000328494        2.4999999993590944     
   127.50000000338910        2.4999999993590944     
   128.50000000349104        2.4999999993590944     
   129.50000000359074        2.4999999993590944     
   130.50000000368806        2.4999999993590944     
   131.50000000378293        2.4999999993590944     
   132.50000000387530        2.4999999993590944     
   133.50000000396506        2.4999999993590944     
   134.50000000405214        2.4999999993590944     
   135.50000000413647        2.4999999993590944     
   136.50000000421795        2.4999999993590944     
   137.50000000429651        2.4999999993590944     
   138.50000000437205        2.4999999993590944     
   139.50000000444453        2.4999999993590944     
   140.50000000451385        2.4999999993590944     
   141.50000000457993        2.4999999993590944     
   142.50000000464269        2.4999999993590944     
   143.50000000470206        2.4999999993590944     
   144.50000000475794        2.4999999993590944     
   145.50000000481026        2.4999999993590944     
   146.50000000485895        2.4999999993590944     
   147.50000000490391        2.4999999993590944     
   148.50000000494506        2.4999999993590944     
   149.50000000498233        2.4999999993590944     
   150.50000000501566        2.4999999993590944     
   151.50000000504494        2.4999999993590944     
   152.50000000507009        2.4999999993590944     
   153.50000000509107        2.4999999993590944     