 variables= "x","y", 
 zone i=         100 j=         400 F=POINT
  0.49999998706399718       0.49999998676648838     
   1.4999999619760001       0.49999998676648838     
   2.4999999384400007       0.49999998676648838     
   3.4999999164239957       0.49999998676648838     
   4.4999998958959937       0.49999998676648838     
   5.4999998768239973       0.49999998676648838     
   6.4999998591759987       0.49999998676648838     
   7.4999998429199994       0.49999998676648838     
   8.4999998280240021       0.49999998676648838     
   9.4999998144559950       0.49999998676648838     
   10.499999802183993       0.49999998676648838     
   11.499999791175997       0.49999998676648838     
   12.499999781399996       0.49999998676648838     
   13.499999772823996       0.49999998676648838     
   14.499999765416000       0.49999998676648838     
   15.499999759143998       0.49999998676648838     
   16.499999753975992       0.49999998676648838     
   17.499999749879994       0.49999998676648838     
   18.499999746823995       0.49999998676648838     
   19.499999744775995       0.49999998676648838     
   20.499999743703995       0.49999998676648838     
   21.499999743575994       0.49999998676648838     
   22.499999744359993       0.49999998676648838     
   23.499999746023995       0.49999998676648838     
   24.499999748535995       0.49999998676648838     
   25.499999751863996       0.49999998676648838     
   26.499999755975995       0.49999998676648838     
   27.499999760839991       0.49999998676648838     
   28.499999766423997       0.49999998676648838     
   29.499999772695997       0.49999998676648838     
   30.499999779623995       0.49999998676648838     
   31.499999787175994       0.49999998676648838     
   32.499999795319994       0.49999998676648838     
   33.499999804023993       0.49999998676648838     
   34.499999813255997       0.49999998676648838     
   35.499999822983995       0.49999998676648838     
   36.499999833175991       0.49999998676648838     
   37.499999843799998       0.49999998676648838     
   38.499999854823997       0.49999998676648838     
   39.499999866216001       0.49999998676648838     
   40.499999877943992       0.49999998676648838     
   41.499999889975996       0.49999998676648838     
   42.499999902279995       0.49999998676648838     
   43.499999914823995       0.49999998676648838     
   44.499999927575999       0.49999998676648838     
   45.499999940503997       0.49999998676648838     
   46.499999953576001       0.49999998676648838     
   47.499999966760001       0.49999998676648838     
   48.499999980024000       0.49999998676648838     
   49.499999993336004       0.49999998676648838     
   50.500000006663996       0.49999998676648838     
   51.500000019976000       0.49999998676648838     
   52.500000033239999       0.49999998676648838     
   53.500000046423999       0.49999998676648838     
   54.500000059496003       0.49999998676648838     
   55.500000072424001       0.49999998676648838     
   56.500000085176005       0.49999998676648838     
   57.500000097720005       0.49999998676648838     
   58.500000110024004       0.49999998676648838     
   59.500000122056008       0.49999998676648838     
   60.500000133783999       0.49999998676648838     
   61.500000145176003       0.49999998676648838     
   62.500000156200002       0.49999998676648838     
   63.500000166824009       0.49999998676648838     
   64.500000177016005       0.49999998676648838     
   65.500000186744003       0.49999998676648838     
   66.500000195976000       0.49999998676648838     
   67.500000204680006       0.49999998676648838     
   68.500000212824006       0.49999998676648838     
   69.500000220375995       0.49999998676648838     
   70.500000227304014       0.49999998676648838     
   71.500000233576003       0.49999998676648838     
   72.500000239160016       0.49999998676648838     
   73.500000244024008       0.49999998676648838     
   74.500000248136004       0.49999998676648838     
   75.500000251464002       0.49999998676648838     
   76.500000253975998       0.49999998676648838     
   77.500000255640003       0.49999998676648838     
   78.500000256424016       0.49999998676648838     
   79.500000256296005       0.49999998676648838     
   80.500000255224009       0.49999998676648838     
   81.500000253176012       0.49999998676648838     
   82.500000250119996       0.49999998676648838     
   83.500000246024001       0.49999998676648838     
   84.500000240855996       0.49999998676648838     
   85.500000234584007       0.49999998676648838     
   86.500000227176002       0.49999998676648838     
   87.500000218600007       0.49999998676648838     
   88.500000208823991       0.49999998676648838     
   89.500000197816007       0.49999998676648838     
   90.500000185544010       0.49999998676648838     
   91.500000171975998       0.49999998676648838     
   92.500000157079995       0.49999998676648838     
   93.500000140824000       0.49999998676648838     
   94.500000123175994       0.49999998676648838     
   95.500000104104004       0.49999998676648838     
   96.500000083575998       0.49999998676648838     
   97.500000061560002       0.49999998676648838     
   98.500000038023998       0.49999998676648838     
   99.500000012935999       0.49999998676648838     
  0.49999998706399718        1.4999999604984895     
   1.4999999619760001        1.4999999604984895     
   2.4999999384400007        1.4999999604984895     
   3.4999999164239957        1.4999999604984895     
   4.4999998958959937        1.4999999604984895     
   5.4999998768239973        1.4999999604984895     
   6.4999998591759987        1.4999999604984895     
   7.4999998429199994        1.4999999604984895     
   8.4999998280240021        1.4999999604984895     
   9.4999998144559950        1.4999999604984895     
   10.499999802183993        1.4999999604984895     
   11.499999791175997        1.4999999604984895     
   12.499999781399996        1.4999999604984895     
   13.499999772823996        1.4999999604984895     
   14.499999765416000        1.4999999604984895     
   15.499999759143998        1.4999999604984895     
   16.499999753975992        1.4999999604984895     
   17.499999749879994        1.4999999604984895     
   18.499999746823995        1.4999999604984895     
   19.499999744775995        1.4999999604984895     
   20.499999743703995        1.4999999604984895     
   21.499999743575994        1.4999999604984895     
   22.499999744359993        1.4999999604984895     
   23.499999746023995        1.4999999604984895     
   24.499999748535995        1.4999999604984895     
   25.499999751863996        1.4999999604984895     
   26.499999755975995        1.4999999604984895     
   27.499999760839991        1.4999999604984895     
   28.499999766423997        1.4999999604984895     
   29.499999772695997        1.4999999604984895     
   30.499999779623995        1.4999999604984895     
   31.499999787175994        1.4999999604984895     
   32.499999795319994        1.4999999604984895     
   33.499999804023993        1.4999999604984895     
   34.499999813255997        1.4999999604984895     
   35.499999822983995        1.4999999604984895     
   36.499999833175991        1.4999999604984895     
   37.499999843799998        1.4999999604984895     
   38.499999854823997        1.4999999604984895     
   39.499999866216001        1.4999999604984895     
   40.499999877943992        1.4999999604984895     
   41.499999889975996        1.4999999604984895     
   42.499999902279995        1.4999999604984895     
   43.499999914823995        1.4999999604984895     
   44.499999927575999        1.4999999604984895     
   45.499999940503997        1.4999999604984895     
   46.499999953576001        1.4999999604984895     
   47.499999966760001        1.4999999604984895     
   48.499999980024000        1.4999999604984895     
   49.499999993336004        1.4999999604984895     
   50.500000006663996        1.4999999604984895     
   51.500000019976000        1.4999999604984895     
   52.500000033239999        1.4999999604984895     
   53.500000046423999        1.4999999604984895     
   54.500000059496003        1.4999999604984895     
   55.500000072424001        1.4999999604984895     
   56.500000085176005        1.4999999604984895     
   57.500000097720005        1.4999999604984895     
   58.500000110024004        1.4999999604984895     
   59.500000122056008        1.4999999604984895     
   60.500000133783999        1.4999999604984895     
   61.500000145176003        1.4999999604984895     
   62.500000156200002        1.4999999604984895     
   63.500000166824009        1.4999999604984895     
   64.500000177016005        1.4999999604984895     
   65.500000186744003        1.4999999604984895     
   66.500000195976000        1.4999999604984895     
   67.500000204680006        1.4999999604984895     
   68.500000212824006        1.4999999604984895     
   69.500000220375995        1.4999999604984895     
   70.500000227304014        1.4999999604984895     
   71.500000233576003        1.4999999604984895     
   72.500000239160016        1.4999999604984895     
   73.500000244024008        1.4999999604984895     
   74.500000248136004        1.4999999604984895     
   75.500000251464002        1.4999999604984895     
   76.500000253975998        1.4999999604984895     
   77.500000255640003        1.4999999604984895     
   78.500000256424016        1.4999999604984895     
   79.500000256296005        1.4999999604984895     
   80.500000255224009        1.4999999604984895     
   81.500000253176012        1.4999999604984895     
   82.500000250119996        1.4999999604984895     
   83.500000246024001        1.4999999604984895     
   84.500000240855996        1.4999999604984895     
   85.500000234584007        1.4999999604984895     
   86.500000227176002        1.4999999604984895     
   87.500000218600007        1.4999999604984895     
   88.500000208823991        1.4999999604984895     
   89.500000197816007        1.4999999604984895     
   90.500000185544010        1.4999999604984895     
   91.500000171975998        1.4999999604984895     
   92.500000157079995        1.4999999604984895     
   93.500000140824000        1.4999999604984895     
   94.500000123175994        1.4999999604984895     
   95.500000104104004        1.4999999604984895     
   96.500000083575998        1.4999999604984895     
   97.500000061560002        1.4999999604984895     
   98.500000038023998        1.4999999604984895     
   99.500000012935999        1.4999999604984895     
  0.49999998706399718        2.4999999346274850     
   1.4999999619760001        2.4999999346274850     
   2.4999999384400007        2.4999999346274850     
   3.4999999164239957        2.4999999346274850     
   4.4999998958959937        2.4999999346274850     
   5.4999998768239973        2.4999999346274850     
   6.4999998591759987        2.4999999346274850     
   7.4999998429199994        2.4999999346274850     
   8.4999998280240021        2.4999999346274850     
   9.4999998144559950        2.4999999346274850     
   10.499999802183993        2.4999999346274850     
   11.499999791175997        2.4999999346274850     
   12.499999781399996        2.4999999346274850     
   13.499999772823996        2.4999999346274850     
   14.499999765416000        2.4999999346274850     
   15.499999759143998        2.4999999346274850     
   16.499999753975992        2.4999999346274850     
   17.499999749879994        2.4999999346274850     
   18.499999746823995        2.4999999346274850     
   19.499999744775995        2.4999999346274850     
   20.499999743703995        2.4999999346274850     
   21.499999743575994        2.4999999346274850     
   22.499999744359993        2.4999999346274850     
   23.499999746023995        2.4999999346274850     
   24.499999748535995        2.4999999346274850     
   25.499999751863996        2.4999999346274850     
   26.499999755975995        2.4999999346274850     
   27.499999760839991        2.4999999346274850     
   28.499999766423997        2.4999999346274850     
   29.499999772695997        2.4999999346274850     
   30.499999779623995        2.4999999346274850     
   31.499999787175994        2.4999999346274850     
   32.499999795319994        2.4999999346274850     
   33.499999804023993        2.4999999346274850     
   34.499999813255997        2.4999999346274850     
   35.499999822983995        2.4999999346274850     
   36.499999833175991        2.4999999346274850     
   37.499999843799998        2.4999999346274850     
   38.499999854823997        2.4999999346274850     
   39.499999866216001        2.4999999346274850     
   40.499999877943992        2.4999999346274850     
   41.499999889975996        2.4999999346274850     
   42.499999902279995        2.4999999346274850     
   43.499999914823995        2.4999999346274850     
   44.499999927575999        2.4999999346274850     
   45.499999940503997        2.4999999346274850     
   46.499999953576001        2.4999999346274850     
   47.499999966760001        2.4999999346274850     
   48.499999980024000        2.4999999346274850     
   49.499999993336004        2.4999999346274850     
   50.500000006663996        2.4999999346274850     
   51.500000019976000        2.4999999346274850     
   52.500000033239999        2.4999999346274850     
   53.500000046423999        2.4999999346274850     
   54.500000059496003        2.4999999346274850     
   55.500000072424001        2.4999999346274850     
   56.500000085176005        2.4999999346274850     
   57.500000097720005        2.4999999346274850     
   58.500000110024004        2.4999999346274850     
   59.500000122056008        2.4999999346274850     
   60.500000133783999        2.4999999346274850     
   61.500000145176003        2.4999999346274850     
   62.500000156200002        2.4999999346274850     
   63.500000166824009        2.4999999346274850     
   64.500000177016005        2.4999999346274850     
   65.500000186744003        2.4999999346274850     
   66.500000195976000        2.4999999346274850     
   67.500000204680006        2.4999999346274850     
   68.500000212824006        2.4999999346274850     
   69.500000220375995        2.4999999346274850     
   70.500000227304014        2.4999999346274850     
   71.500000233576003        2.4999999346274850     
   72.500000239160016        2.4999999346274850     
   73.500000244024008        2.4999999346274850     
   74.500000248136004        2.4999999346274850     
   75.500000251464002        2.4999999346274850     
   76.500000253975998        2.4999999346274850     
   77.500000255640003        2.4999999346274850     
   78.500000256424016        2.4999999346274850     
   79.500000256296005        2.4999999346274850     
   80.500000255224009        2.4999999346274850     
   81.500000253176012        2.4999999346274850     
   82.500000250119996        2.4999999346274850     
   83.500000246024001        2.4999999346274850     
   84.500000240855996        2.4999999346274850     
   85.500000234584007        2.4999999346274850     
   86.500000227176002        2.4999999346274850     
   87.500000218600007        2.4999999346274850     
   88.500000208823991        2.4999999346274850     
   89.500000197816007        2.4999999346274850     
   90.500000185544010        2.4999999346274850     
   91.500000171975998        2.4999999346274850     
   92.500000157079995        2.4999999346274850     
   93.500000140824000        2.4999999346274850     
   94.500000123175994        2.4999999346274850     
   95.500000104104004        2.4999999346274850     
   96.500000083575998        2.4999999346274850     
   97.500000061560002        2.4999999346274850     
   98.500000038023998        2.4999999346274850     
   99.500000012935999        2.4999999346274850     
  0.49999998706399718        3.4999999091514820     
   1.4999999619760001        3.4999999091514820     
   2.4999999384400007        3.4999999091514820     
   3.4999999164239957        3.4999999091514820     
   4.4999998958959937        3.4999999091514820     
   5.4999998768239973        3.4999999091514820     
   6.4999998591759987        3.4999999091514820     
   7.4999998429199994        3.4999999091514820     
   8.4999998280240021        3.4999999091514820     
   9.4999998144559950        3.4999999091514820     
   10.499999802183993        3.4999999091514820     
   11.499999791175997        3.4999999091514820     
   12.499999781399996        3.4999999091514820     
   13.499999772823996        3.4999999091514820     
   14.499999765416000        3.4999999091514820     
   15.499999759143998        3.4999999091514820     
   16.499999753975992        3.4999999091514820     
   17.499999749879994        3.4999999091514820     
   18.499999746823995        3.4999999091514820     
   19.499999744775995        3.4999999091514820     
   20.499999743703995        3.4999999091514820     
   21.499999743575994        3.4999999091514820     
   22.499999744359993        3.4999999091514820     
   23.499999746023995        3.4999999091514820     
   24.499999748535995        3.4999999091514820     
   25.499999751863996        3.4999999091514820     
   26.499999755975995        3.4999999091514820     
   27.499999760839991        3.4999999091514820     
   28.499999766423997        3.4999999091514820     
   29.499999772695997        3.4999999091514820     
   30.499999779623995        3.4999999091514820     
   31.499999787175994        3.4999999091514820     
   32.499999795319994        3.4999999091514820     
   33.499999804023993        3.4999999091514820     
   34.499999813255997        3.4999999091514820     
   35.499999822983995        3.4999999091514820     
   36.499999833175991        3.4999999091514820     
   37.499999843799998        3.4999999091514820     
   38.499999854823997        3.4999999091514820     
   39.499999866216001        3.4999999091514820     
   40.499999877943992        3.4999999091514820     
   41.499999889975996        3.4999999091514820     
   42.499999902279995        3.4999999091514820     
   43.499999914823995        3.4999999091514820     
   44.499999927575999        3.4999999091514820     
   45.499999940503997        3.4999999091514820     
   46.499999953576001        3.4999999091514820     
   47.499999966760001        3.4999999091514820     
   48.499999980024000        3.4999999091514820     
   49.499999993336004        3.4999999091514820     
   50.500000006663996        3.4999999091514820     
   51.500000019976000        3.4999999091514820     
   52.500000033239999        3.4999999091514820     
   53.500000046423999        3.4999999091514820     
   54.500000059496003        3.4999999091514820     
   55.500000072424001        3.4999999091514820     
   56.500000085176005        3.4999999091514820     
   57.500000097720005        3.4999999091514820     
   58.500000110024004        3.4999999091514820     
   59.500000122056008        3.4999999091514820     
   60.500000133783999        3.4999999091514820     
   61.500000145176003        3.4999999091514820     
   62.500000156200002        3.4999999091514820     
   63.500000166824009        3.4999999091514820     
   64.500000177016005        3.4999999091514820     
   65.500000186744003        3.4999999091514820     
   66.500000195976000        3.4999999091514820     
   67.500000204680006        3.4999999091514820     
   68.500000212824006        3.4999999091514820     
   69.500000220375995        3.4999999091514820     
   70.500000227304014        3.4999999091514820     
   71.500000233576003        3.4999999091514820     
   72.500000239160016        3.4999999091514820     
   73.500000244024008        3.4999999091514820     
   74.500000248136004        3.4999999091514820     
   75.500000251464002        3.4999999091514820     
   76.500000253975998        3.4999999091514820     
   77.500000255640003        3.4999999091514820     
   78.500000256424016        3.4999999091514820     
   79.500000256296005        3.4999999091514820     
   80.500000255224009        3.4999999091514820     
   81.500000253176012        3.4999999091514820     
   82.500000250119996        3.4999999091514820     
   83.500000246024001        3.4999999091514820     
   84.500000240855996        3.4999999091514820     
   85.500000234584007        3.4999999091514820     
   86.500000227176002        3.4999999091514820     
   87.500000218600007        3.4999999091514820     
   88.500000208823991        3.4999999091514820     
   89.500000197816007        3.4999999091514820     
   90.500000185544010        3.4999999091514820     
   91.500000171975998        3.4999999091514820     
   92.500000157079995        3.4999999091514820     
   93.500000140824000        3.4999999091514820     
   94.500000123175994        3.4999999091514820     
   95.500000104104004        3.4999999091514820     
   96.500000083575998        3.4999999091514820     
   97.500000061560002        3.4999999091514820     
   98.500000038023998        3.4999999091514820     
   99.500000012935999        3.4999999091514820     
  0.49999998706399718        4.4999998840684885     
   1.4999999619760001        4.4999998840684885     
   2.4999999384400007        4.4999998840684885     
   3.4999999164239957        4.4999998840684885     
   4.4999998958959937        4.4999998840684885     
   5.4999998768239973        4.4999998840684885     
   6.4999998591759987        4.4999998840684885     
   7.4999998429199994        4.4999998840684885     
   8.4999998280240021        4.4999998840684885     
   9.4999998144559950        4.4999998840684885     
   10.499999802183993        4.4999998840684885     
   11.499999791175997        4.4999998840684885     
   12.499999781399996        4.4999998840684885     
   13.499999772823996        4.4999998840684885     
   14.499999765416000        4.4999998840684885     
   15.499999759143998        4.4999998840684885     
   16.499999753975992        4.4999998840684885     
   17.499999749879994        4.4999998840684885     
   18.499999746823995        4.4999998840684885     
   19.499999744775995        4.4999998840684885     
   20.499999743703995        4.4999998840684885     
   21.499999743575994        4.4999998840684885     
   22.499999744359993        4.4999998840684885     
   23.499999746023995        4.4999998840684885     
   24.499999748535995        4.4999998840684885     
   25.499999751863996        4.4999998840684885     
   26.499999755975995        4.4999998840684885     
   27.499999760839991        4.4999998840684885     
   28.499999766423997        4.4999998840684885     
   29.499999772695997        4.4999998840684885     
   30.499999779623995        4.4999998840684885     
   31.499999787175994        4.4999998840684885     
   32.499999795319994        4.4999998840684885     
   33.499999804023993        4.4999998840684885     
   34.499999813255997        4.4999998840684885     
   35.499999822983995        4.4999998840684885     
   36.499999833175991        4.4999998840684885     
   37.499999843799998        4.4999998840684885     
   38.499999854823997        4.4999998840684885     
   39.499999866216001        4.4999998840684885     
   40.499999877943992        4.4999998840684885     
   41.499999889975996        4.4999998840684885     
   42.499999902279995        4.4999998840684885     
   43.499999914823995        4.4999998840684885     
   44.499999927575999        4.4999998840684885     
   45.499999940503997        4.4999998840684885     
   46.499999953576001        4.4999998840684885     
   47.499999966760001        4.4999998840684885     
   48.499999980024000        4.4999998840684885     
   49.499999993336004        4.4999998840684885     
   50.500000006663996        4.4999998840684885     
   51.500000019976000        4.4999998840684885     
   52.500000033239999        4.4999998840684885     
   53.500000046423999        4.4999998840684885     
   54.500000059496003        4.4999998840684885     
   55.500000072424001        4.4999998840684885     
   56.500000085176005        4.4999998840684885     
   57.500000097720005        4.4999998840684885     
   58.500000110024004        4.4999998840684885     
   59.500000122056008        4.4999998840684885     
   60.500000133783999        4.4999998840684885     
   61.500000145176003        4.4999998840684885     
   62.500000156200002        4.4999998840684885     
   63.500000166824009        4.4999998840684885     
   64.500000177016005        4.4999998840684885     
   65.500000186744003        4.4999998840684885     
   66.500000195976000        4.4999998840684885     
   67.500000204680006        4.4999998840684885     
   68.500000212824006        4.4999998840684885     
   69.500000220375995        4.4999998840684885     
   70.500000227304014        4.4999998840684885     
   71.500000233576003        4.4999998840684885     
   72.500000239160016        4.4999998840684885     
   73.500000244024008        4.4999998840684885     
   74.500000248136004        4.4999998840684885     
   75.500000251464002        4.4999998840684885     
   76.500000253975998        4.4999998840684885     
   77.500000255640003        4.4999998840684885     
   78.500000256424016        4.4999998840684885     
   79.500000256296005        4.4999998840684885     
   80.500000255224009        4.4999998840684885     
   81.500000253176012        4.4999998840684885     
   82.500000250119996        4.4999998840684885     
   83.500000246024001        4.4999998840684885     
   84.500000240855996        4.4999998840684885     
   85.500000234584007        4.4999998840684885     
   86.500000227176002        4.4999998840684885     
   87.500000218600007        4.4999998840684885     
   88.500000208823991        4.4999998840684885     
   89.500000197816007        4.4999998840684885     
   90.500000185544010        4.4999998840684885     
   91.500000171975998        4.4999998840684885     
   92.500000157079995        4.4999998840684885     
   93.500000140824000        4.4999998840684885     
   94.500000123175994        4.4999998840684885     
   95.500000104104004        4.4999998840684885     
   96.500000083575998        4.4999998840684885     
   97.500000061560002        4.4999998840684885     
   98.500000038023998        4.4999998840684885     
   99.500000012935999        4.4999998840684885     
  0.49999998706399718        5.4999998593764872     
   1.4999999619760001        5.4999998593764872     
   2.4999999384400007        5.4999998593764872     
   3.4999999164239957        5.4999998593764872     
   4.4999998958959937        5.4999998593764872     
   5.4999998768239973        5.4999998593764872     
   6.4999998591759987        5.4999998593764872     
   7.4999998429199994        5.4999998593764872     
   8.4999998280240021        5.4999998593764872     
   9.4999998144559950        5.4999998593764872     
   10.499999802183993        5.4999998593764872     
   11.499999791175997        5.4999998593764872     
   12.499999781399996        5.4999998593764872     
   13.499999772823996        5.4999998593764872     
   14.499999765416000        5.4999998593764872     
   15.499999759143998        5.4999998593764872     
   16.499999753975992        5.4999998593764872     
   17.499999749879994        5.4999998593764872     
   18.499999746823995        5.4999998593764872     
   19.499999744775995        5.4999998593764872     
   20.499999743703995        5.4999998593764872     
   21.499999743575994        5.4999998593764872     
   22.499999744359993        5.4999998593764872     
   23.499999746023995        5.4999998593764872     
   24.499999748535995        5.4999998593764872     
   25.499999751863996        5.4999998593764872     
   26.499999755975995        5.4999998593764872     
   27.499999760839991        5.4999998593764872     
   28.499999766423997        5.4999998593764872     
   29.499999772695997        5.4999998593764872     
   30.499999779623995        5.4999998593764872     
   31.499999787175994        5.4999998593764872     
   32.499999795319994        5.4999998593764872     
   33.499999804023993        5.4999998593764872     
   34.499999813255997        5.4999998593764872     
   35.499999822983995        5.4999998593764872     
   36.499999833175991        5.4999998593764872     
   37.499999843799998        5.4999998593764872     
   38.499999854823997        5.4999998593764872     
   39.499999866216001        5.4999998593764872     
   40.499999877943992        5.4999998593764872     
   41.499999889975996        5.4999998593764872     
   42.499999902279995        5.4999998593764872     
   43.499999914823995        5.4999998593764872     
   44.499999927575999        5.4999998593764872     
   45.499999940503997        5.4999998593764872     
   46.499999953576001        5.4999998593764872     
   47.499999966760001        5.4999998593764872     
   48.499999980024000        5.4999998593764872     
   49.499999993336004        5.4999998593764872     
   50.500000006663996        5.4999998593764872     
   51.500000019976000        5.4999998593764872     
   52.500000033239999        5.4999998593764872     
   53.500000046423999        5.4999998593764872     