 variables= "x","y", 
 zone i=         240 j=         120 F=POINT
  0.49999999999868777       0.49999999999871042     
   1.4999999999961031       0.49999999999871042     
   2.4999999999935820       0.49999999999871042     
   3.4999999999911120       0.49999999999871042     
   4.4999999999887059       0.49999999999871042     
   5.4999999999863629       0.49999999999871042     
   6.4999999999840821       0.49999999999871042     
   7.4999999999818661       0.49999999999871042     
   8.4999999999797140       0.49999999999871042     
   9.4999999999776250       0.49999999999871042     
   10.499999999975600       0.49999999999871042     
   11.499999999973625       0.49999999999871042     
   12.499999999971713       0.49999999999871042     
   13.499999999969873       0.49999999999871042     
   14.499999999968082       0.49999999999871042     
   15.499999999966349       0.49999999999871042     
   16.499999999964679       0.49999999999871042     
   17.499999999963073       0.49999999999871042     
   18.499999999961517       0.49999999999871042     
   19.499999999960011       0.49999999999871042     
   20.499999999958572       0.49999999999871042     
   21.499999999957183       0.49999999999871042     
   22.499999999955840       0.49999999999871042     
   23.499999999954561       0.49999999999871042     
   24.499999999953335       0.49999999999871042     
   25.499999999952159       0.49999999999871042     
   26.499999999951037       0.49999999999871042     
   27.499999999949964       0.49999999999871042     
   28.499999999948948       0.49999999999871042     
   29.499999999947985       0.49999999999871042     
   30.499999999947072       0.49999999999871042     
   31.499999999946205       0.49999999999871042     
   32.499999999945388       0.49999999999871042     
   33.499999999944613       0.49999999999871042     
   34.499999999943881       0.49999999999871042     
   35.499999999943213       0.49999999999871042     
   36.499999999942588       0.49999999999871042     
   37.499999999942006       0.49999999999871042     
   38.499999999941465       0.49999999999871042     
   39.499999999940982       0.49999999999871042     
   40.499999999940535       0.49999999999871042     
   41.499999999940130       0.49999999999871042     
   42.499999999939774       0.49999999999871042     
   43.499999999939476       0.49999999999871042     
   44.499999999939206       0.49999999999871042     
   45.499999999938964       0.49999999999871042     
   46.499999999938780       0.49999999999871042     
   47.499999999938638       0.49999999999871042     
   48.499999999938524       0.49999999999871042     
   49.499999999938453       0.49999999999871042     
   50.499999999938431       0.49999999999871042     
   51.499999999938439       0.49999999999871042     
   52.499999999938481       0.49999999999871042     
   53.499999999938566       0.49999999999871042     
   54.499999999938694       0.49999999999871042     
   55.499999999938865       0.49999999999871042     
   56.499999999939050       0.49999999999871042     
   57.499999999939277       0.49999999999871042     
   58.499999999939547       0.49999999999871042     
   59.499999999939853       0.49999999999871042     
   60.499999999940187       0.49999999999871042     
   61.499999999940556       0.49999999999871042     
   62.499999999940954       0.49999999999871042     
   63.499999999941380       0.49999999999871042     
   64.499999999941849       0.49999999999871042     
   65.499999999942332       0.49999999999871042     
   66.499999999942858       0.49999999999871042     
   67.499999999943412       0.49999999999871042     
   68.499999999943981       0.49999999999871042     
   69.499999999944606       0.49999999999871042     
   70.499999999945246       0.49999999999871042     
   71.499999999945913       0.49999999999871042     
   72.499999999946596       0.49999999999871042     
   73.499999999947320       0.49999999999871042     
   74.499999999948074       0.49999999999871042     
   75.499999999948841       0.49999999999871042     
   76.499999999949637       0.49999999999871042     
   77.499999999950461       0.49999999999871042     
   78.499999999951299       0.49999999999871042     
   79.499999999952166       0.49999999999871042     
   80.499999999953047       0.49999999999871042     
   81.499999999953957       0.49999999999871042     
   82.499999999954895       0.49999999999871042     
   83.499999999955847       0.49999999999871042     
   84.499999999956827       0.49999999999871042     
   85.499999999957808       0.49999999999871042     
   86.499999999958817       0.49999999999871042     
   87.499999999959854       0.49999999999871042     
   88.499999999960906       0.49999999999871042     
   89.499999999961972       0.49999999999871042     
   90.499999999963052       0.49999999999871042     
   91.499999999964146       0.49999999999871042     
   92.499999999965269       0.49999999999871042     
   93.499999999966391       0.49999999999871042     
   94.499999999967542       0.49999999999871042     
   95.499999999968693       0.49999999999871042     
   96.499999999969873       0.49999999999871042     
   97.499999999971067       0.49999999999871042     
   98.499999999972260       0.49999999999871042     
   99.499999999973468       0.49999999999871042     
   100.49999999997469       0.49999999999871042     
   101.49999999997593       0.49999999999871042     
   102.49999999997716       0.49999999999871042     
   103.49999999997843       0.49999999999871042     
   104.49999999997968       0.49999999999871042     
   105.49999999998096       0.49999999999871042     
   106.49999999998224       0.49999999999871042     
   107.49999999998352       0.49999999999871042     
   108.49999999998481       0.49999999999871042     
   109.49999999998610       0.49999999999871042     
   110.49999999998741       0.49999999999871042     
   111.49999999998872       0.49999999999871042     
   112.49999999999005       0.49999999999871042     
   113.49999999999136       0.49999999999871042     
   114.49999999999268       0.49999999999871042     
   115.49999999999400       0.49999999999871042     
   116.49999999999534       0.49999999999871042     
   117.49999999999667       0.49999999999871042     
   118.49999999999800       0.49999999999871042     
   119.49999999999933       0.49999999999871042     
   120.50000000000067       0.49999999999871042     
   121.50000000000200       0.49999999999871042     
   122.50000000000333       0.49999999999871042     
   123.50000000000466       0.49999999999871042     
   124.50000000000600       0.49999999999871042     
   125.50000000000732       0.49999999999871042     
   126.50000000000864       0.49999999999871042     
   127.50000000000996       0.49999999999871042     
   128.50000000001128       0.49999999999871042     
   129.50000000001259       0.49999999999871042     
   130.50000000001390       0.49999999999871042     
   131.50000000001521       0.49999999999871042     
   132.50000000001648       0.49999999999871042     
   133.50000000001776       0.49999999999871042     
   134.50000000001904       0.49999999999871042     
   135.50000000002029       0.49999999999871042     
   136.50000000002160       0.49999999999871042     
   137.50000000002285       0.49999999999871042     
   138.50000000002410       0.49999999999871042     
   139.50000000002530       0.49999999999871042     
   140.50000000002655       0.49999999999871042     
   141.50000000002774       0.49999999999871042     
   142.50000000002893       0.49999999999871042     
   143.50000000003013       0.49999999999871042     
   144.50000000003132       0.49999999999871042     
   145.50000000003246       0.49999999999871042     
   146.50000000003359       0.49999999999871042     
   147.50000000003473       0.49999999999871042     
   148.50000000003587       0.49999999999871042     
   149.50000000003695       0.49999999999871042     
   150.50000000003803       0.49999999999871042     
   151.50000000003911       0.49999999999871042     
   152.50000000004013       0.49999999999871042     
   153.50000000004118       0.49999999999871042     
   154.50000000004218       0.49999999999871042     
   155.50000000004317       0.49999999999871042     
   156.50000000004414       0.49999999999871042     
   157.50000000004511       0.49999999999871042     
   158.50000000004604       0.49999999999871042     
   159.50000000004695       0.49999999999871042     
   160.50000000004783       0.49999999999871042     
   161.50000000004869       0.49999999999871042     
   162.50000000004954       0.49999999999871042     
   163.50000000005036       0.49999999999871042     
   164.50000000005116       0.49999999999871042     
   165.50000000005193       0.49999999999871042     
   166.50000000005267       0.49999999999871042     
   167.50000000005340       0.49999999999871042     
   168.50000000005411       0.49999999999871042     
   169.50000000005474       0.49999999999871042     
   170.50000000005539       0.49999999999871042     
   171.50000000005602       0.49999999999871042     
   172.50000000005662       0.49999999999871042     
   173.50000000005713       0.49999999999871042     
   174.50000000005767       0.49999999999871042     
   175.50000000005815       0.49999999999871042     
   176.50000000005861       0.49999999999871042     
   177.50000000005906       0.49999999999871042     
   178.50000000005946       0.49999999999871042     
   179.50000000005980       0.49999999999871042     
   180.50000000006014       0.49999999999871042     
   181.50000000006045       0.49999999999871042     
   182.50000000006071       0.49999999999871042     
   183.50000000006094       0.49999999999871042     
   184.50000000006114       0.49999999999871042     
   185.50000000006131       0.49999999999871042     
   186.50000000006145       0.49999999999871042     
   187.50000000006150       0.49999999999871042     
   188.50000000006156       0.49999999999871042     
   189.50000000006156       0.49999999999871042     
   190.50000000006153       0.49999999999871042     
   191.50000000006145       0.49999999999871042     
   192.50000000006136       0.49999999999871042     
   193.50000000006122       0.49999999999871042     
   194.50000000006105       0.49999999999871042     
   195.50000000006079       0.49999999999871042     
   196.50000000006051       0.49999999999871042     
   197.50000000006020       0.49999999999871042     
   198.50000000005986       0.49999999999871042     
   199.50000000005946       0.49999999999871042     
   200.50000000005900       0.49999999999871042     
   201.50000000005852       0.49999999999871042     
   202.50000000005798       0.49999999999871042     
   203.50000000005741       0.49999999999871042     
   204.50000000005679       0.49999999999871042     
   205.50000000005610       0.49999999999871042     
   206.50000000005539       0.49999999999871042     
   207.50000000005463       0.49999999999871042     
   208.50000000005380       0.49999999999871042     
   209.50000000005292       0.49999999999871042     
   210.50000000005201       0.49999999999871042     
   211.50000000005105       0.49999999999871042     
   212.50000000005002       0.49999999999871042     
   213.50000000004894       0.49999999999871042     
   214.50000000004783       0.49999999999871042     
   215.50000000004667       0.49999999999871042     
   216.50000000004545       0.49999999999871042     
   217.50000000004417       0.49999999999871042     
   218.50000000004280       0.49999999999871042     
   219.50000000004144       0.49999999999871042     
   220.50000000003999       0.49999999999871042     
   221.50000000003848       0.49999999999871042     
   222.50000000003695       0.49999999999871042     
   223.50000000003533       0.49999999999871042     
   224.50000000003365       0.49999999999871042     
   225.50000000003192       0.49999999999871042     
   226.50000000003013       0.49999999999871042     
   227.50000000002828       0.49999999999871042     
   228.50000000002638       0.49999999999871042     
   229.50000000002439       0.49999999999871042     
   230.50000000002237       0.49999999999871042     
   231.50000000002029       0.49999999999871042     
   232.50000000001813       0.49999999999871042     
   233.50000000001592       0.49999999999871042     
   234.50000000001364       0.49999999999871042     
   235.50000000001131       0.49999999999871042     
   236.50000000000890       0.49999999999871042     
   237.50000000000642       0.49999999999871042     
   238.50000000000392       0.49999999999871042     
   239.50000000000131       0.49999999999871042     
  0.49999999999868777        1.4999999999961831     
   1.4999999999961031        1.4999999999961831     
   2.4999999999935820        1.4999999999961831     
   3.4999999999911120        1.4999999999961831     
   4.4999999999887059        1.4999999999961831     
   5.4999999999863629        1.4999999999961831     
   6.4999999999840821        1.4999999999961831     
   7.4999999999818661        1.4999999999961831     
   8.4999999999797140        1.4999999999961831     
   9.4999999999776250        1.4999999999961831     
   10.499999999975600        1.4999999999961831     
   11.499999999973625        1.4999999999961831     
   12.499999999971713        1.4999999999961831     
   13.499999999969873        1.4999999999961831     
   14.499999999968082        1.4999999999961831     
   15.499999999966349        1.4999999999961831     
   16.499999999964679        1.4999999999961831     
   17.499999999963073        1.4999999999961831     
   18.499999999961517        1.4999999999961831     
   19.499999999960011        1.4999999999961831     
   20.499999999958572        1.4999999999961831     
   21.499999999957183        1.4999999999961831     
   22.499999999955840        1.4999999999961831     
   23.499999999954561        1.4999999999961831     
   24.499999999953335        1.4999999999961831     
   25.499999999952159        1.4999999999961831     
   26.499999999951037        1.4999999999961831     
   27.499999999949964        1.4999999999961831     
   28.499999999948948        1.4999999999961831     
   29.499999999947985        1.4999999999961831     
   30.499999999947072        1.4999999999961831     
   31.499999999946205        1.4999999999961831     
   32.499999999945388        1.4999999999961831     
   33.499999999944613        1.4999999999961831     
   34.499999999943881        1.4999999999961831     
   35.499999999943213        1.4999999999961831     
   36.499999999942588        1.4999999999961831     
   37.499999999942006        1.4999999999961831     
   38.499999999941465        1.4999999999961831     
   39.499999999940982        1.4999999999961831     
   40.499999999940535        1.4999999999961831     
   41.499999999940130        1.4999999999961831     
   42.499999999939774        1.4999999999961831     
   43.499999999939476        1.4999999999961831     
   44.499999999939206        1.4999999999961831     
   45.499999999938964        1.4999999999961831     
   46.499999999938780        1.4999999999961831     
   47.499999999938638        1.4999999999961831     
   48.499999999938524        1.4999999999961831     
   49.499999999938453        1.4999999999961831     
   50.499999999938431        1.4999999999961831     
   51.499999999938439        1.4999999999961831     
   52.499999999938481        1.4999999999961831     
   53.499999999938566        1.4999999999961831     
   54.499999999938694        1.4999999999961831     
   55.499999999938865        1.4999999999961831     
   56.499999999939050        1.4999999999961831     
   57.499999999939277        1.4999999999961831     
   58.499999999939547        1.4999999999961831     
   59.499999999939853        1.4999999999961831     
   60.499999999940187        1.4999999999961831     
   61.499999999940556        1.4999999999961831     
   62.499999999940954        1.4999999999961831     
   63.499999999941380        1.4999999999961831     
   64.499999999941849        1.4999999999961831     
   65.499999999942332        1.4999999999961831     
   66.499999999942858        1.4999999999961831     
   67.499999999943412        1.4999999999961831     
   68.499999999943981        1.4999999999961831     
   69.499999999944606        1.4999999999961831     
   70.499999999945246        1.4999999999961831     
   71.499999999945913        1.4999999999961831     
   72.499999999946596        1.4999999999961831     
   73.499999999947320        1.4999999999961831     
   74.499999999948074        1.4999999999961831     
   75.499999999948841        1.4999999999961831     
   76.499999999949637        1.4999999999961831     
   77.499999999950461        1.4999999999961831     
   78.499999999951299        1.4999999999961831     
   79.499999999952166        1.4999999999961831     
   80.499999999953047        1.4999999999961831     
   81.499999999953957        1.4999999999961831     
   82.499999999954895        1.4999999999961831     
   83.499999999955847        1.4999999999961831     
   84.499999999956827        1.4999999999961831     
   85.499999999957808        1.4999999999961831     
   86.499999999958817        1.4999999999961831     
   87.499999999959854        1.4999999999961831     
   88.499999999960906        1.4999999999961831     
   89.499999999961972        1.4999999999961831     
   90.499999999963052        1.4999999999961831     
   91.499999999964146        1.4999999999961831     
   92.499999999965269        1.4999999999961831     
   93.499999999966391        1.4999999999961831     
   94.499999999967542        1.4999999999961831     
   95.499999999968693        1.4999999999961831     
   96.499999999969873        1.4999999999961831     
   97.499999999971067        1.4999999999961831     
   98.499999999972260        1.4999999999961831     
   99.499999999973468        1.4999999999961831     
   100.49999999997469        1.4999999999961831     
   101.49999999997593        1.4999999999961831     
   102.49999999997716        1.4999999999961831     
   103.49999999997843        1.4999999999961831     
   104.49999999997968        1.4999999999961831     
   105.49999999998096        1.4999999999961831     
   106.49999999998224        1.4999999999961831     
   107.49999999998352        1.4999999999961831     
   108.49999999998481        1.4999999999961831     
   109.49999999998610        1.4999999999961831     
   110.49999999998741        1.4999999999961831     
   111.49999999998872        1.4999999999961831     
   112.49999999999005        1.4999999999961831     
   113.49999999999136        1.4999999999961831     
   114.49999999999268        1.4999999999961831     
   115.49999999999400        1.4999999999961831     
   116.49999999999534        1.4999999999961831     
   117.49999999999667        1.4999999999961831     
   118.49999999999800        1.4999999999961831     
   119.49999999999933        1.4999999999961831     
   120.50000000000067        1.4999999999961831     
   121.50000000000200        1.4999999999961831     
   122.50000000000333        1.4999999999961831     
   123.50000000000466        1.4999999999961831     
   124.50000000000600        1.4999999999961831     
   125.50000000000732        1.4999999999961831     
   126.50000000000864        1.4999999999961831     
   127.50000000000996        1.4999999999961831     
   128.50000000001128        1.4999999999961831     
   129.50000000001259        1.4999999999961831     
   130.50000000001390        1.4999999999961831     
   131.50000000001521        1.4999999999961831     
   132.50000000001648        1.4999999999961831     
   133.50000000001776        1.4999999999961831     
   134.50000000001904        1.4999999999961831     
   135.50000000002029        1.4999999999961831     
   136.50000000002160        1.4999999999961831     
   137.50000000002285        1.4999999999961831     
   138.50000000002410        1.4999999999961831     
   139.50000000002530        1.4999999999961831     
   140.50000000002655        1.4999999999961831     
   141.50000000002774        1.4999999999961831     
   142.50000000002893        1.4999999999961831     
   143.50000000003013        1.4999999999961831     
   144.50000000003132        1.4999999999961831     
   145.50000000003246        1.4999999999961831     
   146.50000000003359        1.4999999999961831     
   147.50000000003473        1.4999999999961831     
   148.50000000003587        1.4999999999961831     
   149.50000000003695        1.4999999999961831     
   150.50000000003803        1.4999999999961831     
   151.50000000003911        1.4999999999961831     
   152.50000000004013        1.4999999999961831     
   153.50000000004118        1.4999999999961831     
   154.50000000004218        1.4999999999961831     
   155.50000000004317        1.4999999999961831     
   156.50000000004414        1.4999999999961831     
   157.50000000004511        1.4999999999961831     
   158.50000000004604        1.4999999999961831     
   159.50000000004695        1.4999999999961831     
   160.50000000004783        1.4999999999961831     
   161.50000000004869        1.4999999999961831     
   162.50000000004954        1.4999999999961831     
   163.50000000005036        1.4999999999961831     
   164.50000000005116        1.4999999999961831     
   165.50000000005193        1.4999999999961831     
   166.50000000005267        1.4999999999961831     
   167.50000000005340        1.4999999999961831     
   168.50000000005411        1.4999999999961831     
   169.50000000005474        1.4999999999961831     
   170.50000000005539        1.4999999999961831     
   171.50000000005602        1.4999999999961831     
   172.50000000005662        1.4999999999961831     
   173.50000000005713        1.4999999999961831     
   174.50000000005767        1.4999999999961831     
   175.50000000005815        1.4999999999961831     
   176.50000000005861        1.4999999999961831     
   177.50000000005906        1.4999999999961831     
   178.50000000005946        1.4999999999961831     
   179.50000000005980        1.4999999999961831     
   180.50000000006014        1.4999999999961831     
   181.50000000006045        1.4999999999961831     
   182.50000000006071        1.4999999999961831     
   183.50000000006094        1.4999999999961831     
   184.50000000006114        1.4999999999961831     
   185.50000000006131        1.4999999999961831     
   186.50000000006145        1.4999999999961831     
   187.50000000006150        1.4999999999961831     
   188.50000000006156        1.4999999999961831     
   189.50000000006156        1.4999999999961831     
   190.50000000006153        1.4999999999961831     
   191.50000000006145        1.4999999999961831     
   192.50000000006136        1.4999999999961831     
   193.50000000006122        1.4999999999961831     
   194.50000000006105        1.4999999999961831     
   195.50000000006079        1.4999999999961831     
   196.50000000006051        1.4999999999961831     
   197.50000000006020        1.4999999999961831     
   198.50000000005986        1.4999999999961831     
   199.50000000005946        1.4999999999961831     
   200.50000000005900        1.4999999999961831     
   201.50000000005852        1.4999999999961831     
   202.50000000005798        1.4999999999961831     
   203.50000000005741        1.4999999999961831     
   204.50000000005679        1.4999999999961831     
   205.50000000005610        1.4999999999961831     
   206.50000000005539        1.4999999999961831     
   207.50000000005463        1.4999999999961831     
   208.50000000005380        1.4999999999961831     
   209.50000000005292        1.4999999999961831     
   210.50000000005201        1.4999999999961831     
   211.50000000005105        1.4999999999961831     
   212.50000000005002        1.4999999999961831     
   213.50000000004894        1.4999999999961831     
   214.50000000004783        1.4999999999961831     
   215.50000000004667        1.4999999999961831     
   216.50000000004545        1.4999999999961831     
   217.50000000004417        1.4999999999961831     
   218.50000000004280        1.4999999999961831     
   219.50000000004144        1.4999999999961831     
   220.50000000003999        1.4999999999961831     
   221.50000000003848        1.4999999999961831     
   222.50000000003695        1.4999999999961831     
   223.50000000003533        1.4999999999961831     
   224.50000000003365        1.4999999999961831     
   225.50000000003192        1.4999999999961831     
   226.50000000003013        1.4999999999961831     
   227.50000000002828        1.4999999999961831     
   228.50000000002638        1.4999999999961831     
   229.50000000002439        1.4999999999961831     
   230.50000000002237        1.4999999999961831     
   231.50000000002029        1.4999999999961831     
   232.50000000001813        1.4999999999961831     
   233.50000000001592        1.4999999999961831     
   234.50000000001364        1.4999999999961831     
   235.50000000001131        1.4999999999961831     
   236.50000000000890        1.4999999999961831     
   237.50000000000642        1.4999999999961831     
   238.50000000000392        1.4999999999961831     
   239.50000000000131        1.4999999999961831     
  0.49999999999868777        2.4999999999937765     
   1.4999999999961031        2.4999999999937765     
   2.4999999999935820        2.4999999999937765     
   3.4999999999911120        2.4999999999937765     
   4.4999999999887059        2.4999999999937765     
   5.4999999999863629        2.4999999999937765     
   6.4999999999840821        2.4999999999937765     
   7.4999999999818661        2.4999999999937765     
   8.4999999999797140        2.4999999999937765     
   9.4999999999776250        2.4999999999937765     
   10.499999999975600        2.4999999999937765     
   11.499999999973625        2.4999999999937765     
   12.499999999971713        2.4999999999937765     
   13.499999999969873        2.4999999999937765     
   14.499999999968082        2.4999999999937765     
   15.499999999966349        2.4999999999937765     
   16.499999999964679        2.4999999999937765     
   17.499999999963073        2.4999999999937765     
   18.499999999961517        2.4999999999937765     
   19.499999999960011        2.4999999999937765     
   20.499999999958572        2.4999999999937765     
   21.499999999957183        2.4999999999937765     
   22.499999999955840        2.4999999999937765     
   23.499999999954561        2.4999999999937765     
   24.499999999953335        2.4999999999937765     
   25.499999999952159        2.4999999999937765     
   26.499999999951037        2.4999999999937765     
   27.499999999949964        2.4999999999937765     
   28.499999999948948        2.4999999999937765     
   29.499999999947985        2.4999999999937765     
   30.499999999947072        2.4999999999937765     
   31.499999999946205        2.4999999999937765     
   32.499999999945388        2.4999999999937765     
   33.499999999944613        2.4999999999937765     
   34.499999999943881        2.4999999999937765     
   35.499999999943213        2.4999999999937765     
   36.499999999942588        2.4999999999937765     
   37.499999999942006        2.4999999999937765     
   38.499999999941465        2.4999999999937765     
   39.499999999940982        2.4999999999937765     
   40.499999999940535        2.4999999999937765     
   41.499999999940130        2.4999999999937765     
   42.499999999939774        2.4999999999937765     
   43.499999999939476        2.4999999999937765     
   44.499999999939206        2.4999999999937765     
   45.499999999938964        2.4999999999937765     
   46.499999999938780        2.4999999999937765     
   47.499999999938638        2.4999999999937765     
   48.499999999938524        2.4999999999937765     
   49.499999999938453        2.4999999999937765     
   50.499999999938431        2.4999999999937765     
   51.499999999938439        2.4999999999937765     
   52.499999999938481        2.4999999999937765     
   53.499999999938566        2.4999999999937765     
   54.499999999938694        2.4999999999937765     
   55.499999999938865        2.4999999999937765     
   56.499999999939050        2.4999999999937765     
   57.499999999939277        2.4999999999937765     
   58.499999999939547        2.4999999999937765     
   59.499999999939853        2.4999999999937765     
   60.499999999940187        2.4999999999937765     
   61.499999999940556        2.4999999999937765     
   62.499999999940954        2.4999999999937765     
   63.499999999941380        2.4999999999937765     
   64.499999999941849        2.4999999999937765     
   65.499999999942332        2.4999999999937765     
   66.499999999942858        2.4999999999937765     
   67.499999999943412        2.4999999999937765     
   68.499999999943981        2.4999999999937765     
   69.499999999944606        2.4999999999937765     
   70.499999999945246        2.4999999999937765     
   71.499999999945913        2.4999999999937765     
   72.499999999946596        2.4999999999937765     
   73.499999999947320        2.4999999999937765     