 variables= "theta" , "Weqs" , "Heqs"
 zone t="present"
   60.000000000000000        1.1624999999997638       0.49999999999905770     
