 variables= "x","y", 
 zone i=         160 j=         320 F=POINT
  0.49999999999869443       0.49999999999869799     
   1.4999999999961353       0.49999999999869799     
   2.4999999999936691       0.49999999999869799     
   3.4999999999912967       0.49999999999869799     
   4.4999999999890212       0.49999999999869799     
   5.4999999999868345       0.49999999999869799     
   6.4999999999847455       0.49999999999869799     
   7.4999999999827454       0.49999999999869799     
   8.4999999999808384       0.49999999999869799     
   9.4999999999790212       0.49999999999869799     
   10.499999999977288       0.49999999999869799     
   11.499999999975651       0.49999999999869799     
   12.499999999974097       0.49999999999869799     
   13.499999999972621       0.49999999999869799     
   14.499999999971234       0.49999999999869799     
   15.499999999969926       0.49999999999869799     
   16.499999999968697       0.49999999999869799     
   17.499999999967550       0.49999999999869799     
   18.499999999966477       0.49999999999869799     
   19.499999999965489       0.49999999999869799     
   20.499999999964565       0.49999999999869799     
   21.499999999963727       0.49999999999869799     
   22.499999999962959       0.49999999999869799     
   23.499999999962260       0.49999999999869799     
   24.499999999961631       0.49999999999869799     
   25.499999999961069       0.49999999999869799     
   26.499999999960583       0.49999999999869799     
   27.499999999960160       0.49999999999869799     
   28.499999999959805       0.49999999999869799     
   29.499999999959517       0.49999999999869799     
   30.499999999959286       0.49999999999869799     
   31.499999999959115       0.49999999999869799     
   32.499999999959009       0.49999999999869799     
   33.499999999958959       0.49999999999869799     
   34.499999999958973       0.49999999999869799     
   35.499999999959030       0.49999999999869799     
   36.499999999959158       0.49999999999869799     
   37.499999999959343       0.49999999999869799     
   38.499999999959570       0.49999999999869799     
   39.499999999959854       0.49999999999869799     
   40.499999999960181       0.49999999999869799     
   41.499999999960565       0.49999999999869799     
   42.499999999960998       0.49999999999869799     
   43.499999999961474       0.49999999999869799     
   44.499999999962000       0.49999999999869799     
   45.499999999962569       0.49999999999869799     
   46.499999999963180       0.49999999999869799     
   47.499999999963826       0.49999999999869799     
   48.499999999964515       0.49999999999869799     
   49.499999999965247       0.49999999999869799     
   50.499999999966022       0.49999999999869799     
   51.499999999966832       0.49999999999869799     
   52.499999999967670       0.49999999999869799     
   53.499999999968551       0.49999999999869799     
   54.499999999969461       0.49999999999869799     
   55.499999999970406       0.49999999999869799     
   56.499999999971379       0.49999999999869799     
   57.499999999972381       0.49999999999869799     
   58.499999999973411       0.49999999999869799     
   59.499999999974470       0.49999999999869799     
   60.499999999975550       0.49999999999869799     
   61.499999999976659       0.49999999999869799     
   62.499999999977788       0.49999999999869799     
   63.499999999978940       0.49999999999869799     
   64.499999999980105       0.49999999999869799     
   65.499999999981299       0.49999999999869799     
   66.499999999982521       0.49999999999869799     
   67.499999999983743       0.49999999999869799     
   68.499999999984993       0.49999999999869799     
   69.499999999986244       0.49999999999869799     
   70.499999999987509       0.49999999999869799     
   71.499999999988802       0.49999999999869799     
   72.499999999990081       0.49999999999869799     
   73.499999999991388       0.49999999999869799     
   74.499999999992696       0.49999999999869799     
   75.499999999994031       0.49999999999869799     
   76.499999999995339       0.49999999999869799     
   77.499999999996675       0.49999999999869799     
   78.499999999997996       0.49999999999869799     
   79.499999999999332       0.49999999999869799     
   80.500000000000668       0.49999999999869799     
   81.500000000002004       0.49999999999869799     
   82.500000000003325       0.49999999999869799     
   83.500000000004661       0.49999999999869799     
   84.500000000005969       0.49999999999869799     
   85.500000000007304       0.49999999999869799     
   86.500000000008612       0.49999999999869799     
   87.500000000009919       0.49999999999869799     
   88.500000000011198       0.49999999999869799     
   89.500000000012491       0.49999999999869799     
   90.500000000013756       0.49999999999869799     
   91.500000000015007       0.49999999999869799     
   92.500000000016257       0.49999999999869799     
   93.500000000017479       0.49999999999869799     
   94.500000000018701       0.49999999999869799     
   95.500000000019895       0.49999999999869799     
   96.500000000021060       0.49999999999869799     
   97.500000000022212       0.49999999999869799     
   98.500000000023334       0.49999999999869799     
   99.500000000024443       0.49999999999869799     
   100.50000000002552       0.49999999999869799     
   101.50000000002659       0.49999999999869799     
   102.50000000002763       0.49999999999869799     
   103.50000000002862       0.49999999999869799     
   104.50000000002959       0.49999999999869799     
   105.50000000003054       0.49999999999869799     
   106.50000000003145       0.49999999999869799     
   107.50000000003232       0.49999999999869799     
   108.50000000003317       0.49999999999869799     
   109.50000000003398       0.49999999999869799     
   110.50000000003476       0.49999999999869799     
   111.50000000003548       0.49999999999869799     
   112.50000000003618       0.49999999999869799     
   113.50000000003683       0.49999999999869799     
   114.50000000003743       0.49999999999869799     
   115.50000000003800       0.49999999999869799     
   116.50000000003853       0.49999999999869799     
   117.50000000003899       0.49999999999869799     
   118.50000000003942       0.49999999999869799     
   119.50000000003982       0.49999999999869799     
   120.50000000004015       0.49999999999869799     
   121.50000000004043       0.49999999999869799     
   122.50000000004066       0.49999999999869799     
   123.50000000004084       0.49999999999869799     
   124.50000000004097       0.49999999999869799     
   125.50000000004103       0.49999999999869799     
   126.50000000004104       0.49999999999869799     
   127.50000000004098       0.49999999999869799     
   128.50000000004087       0.49999999999869799     
   129.50000000004070       0.49999999999869799     
   130.50000000004047       0.49999999999869799     
   131.50000000004019       0.49999999999869799     
   132.50000000003985       0.49999999999869799     
   133.50000000003942       0.49999999999869799     
   134.50000000003894       0.49999999999869799     
   135.50000000003837       0.49999999999869799     
   136.50000000003774       0.49999999999869799     
   137.50000000003703       0.49999999999869799     
   138.50000000003627       0.49999999999869799     
   139.50000000003541       0.49999999999869799     
   140.50000000003450       0.49999999999869799     
   141.50000000003354       0.49999999999869799     
   142.50000000003246       0.49999999999869799     
   143.50000000003129       0.49999999999869799     
   144.50000000003007       0.49999999999869799     
   145.50000000002876       0.49999999999869799     
   146.50000000002737       0.49999999999869799     
   147.50000000002592       0.49999999999869799     
   148.50000000002436       0.49999999999869799     
   149.50000000002271       0.49999999999869799     
   150.50000000002098       0.49999999999869799     
   151.50000000001916       0.49999999999869799     
   152.50000000001728       0.49999999999869799     
   153.50000000001526       0.49999999999869799     
   154.50000000001319       0.49999999999869799     
   155.50000000001097       0.49999999999869799     
   156.50000000000870       0.49999999999869799     
   157.50000000000634       0.49999999999869799     
   158.50000000000387       0.49999999999869799     
   159.50000000000131       0.49999999999869799     
  0.49999999999869443        1.4999999999960796     
   1.4999999999961353        1.4999999999960796     
   2.4999999999936691        1.4999999999960796     
   3.4999999999912967        1.4999999999960796     
   4.4999999999890212        1.4999999999960796     
   5.4999999999868345        1.4999999999960796     
   6.4999999999847455        1.4999999999960796     
   7.4999999999827454        1.4999999999960796     
   8.4999999999808384        1.4999999999960796     
   9.4999999999790212        1.4999999999960796     
   10.499999999977288        1.4999999999960796     
   11.499999999975651        1.4999999999960796     
   12.499999999974097        1.4999999999960796     
   13.499999999972621        1.4999999999960796     
   14.499999999971234        1.4999999999960796     
   15.499999999969926        1.4999999999960796     
   16.499999999968697        1.4999999999960796     
   17.499999999967550        1.4999999999960796     
   18.499999999966477        1.4999999999960796     
   19.499999999965489        1.4999999999960796     
   20.499999999964565        1.4999999999960796     
   21.499999999963727        1.4999999999960796     
   22.499999999962959        1.4999999999960796     
   23.499999999962260        1.4999999999960796     
   24.499999999961631        1.4999999999960796     
   25.499999999961069        1.4999999999960796     
   26.499999999960583        1.4999999999960796     
   27.499999999960160        1.4999999999960796     
   28.499999999959805        1.4999999999960796     
   29.499999999959517        1.4999999999960796     
   30.499999999959286        1.4999999999960796     
   31.499999999959115        1.4999999999960796     
   32.499999999959009        1.4999999999960796     
   33.499999999958959        1.4999999999960796     
   34.499999999958973        1.4999999999960796     
   35.499999999959030        1.4999999999960796     
   36.499999999959158        1.4999999999960796     
   37.499999999959343        1.4999999999960796     
   38.499999999959570        1.4999999999960796     
   39.499999999959854        1.4999999999960796     
   40.499999999960181        1.4999999999960796     
   41.499999999960565        1.4999999999960796     
   42.499999999960998        1.4999999999960796     
   43.499999999961474        1.4999999999960796     
   44.499999999962000        1.4999999999960796     
   45.499999999962569        1.4999999999960796     
   46.499999999963180        1.4999999999960796     
   47.499999999963826        1.4999999999960796     
   48.499999999964515        1.4999999999960796     
   49.499999999965247        1.4999999999960796     
   50.499999999966022        1.4999999999960796     
   51.499999999966832        1.4999999999960796     
   52.499999999967670        1.4999999999960796     
   53.499999999968551        1.4999999999960796     
   54.499999999969461        1.4999999999960796     
   55.499999999970406        1.4999999999960796     
   56.499999999971379        1.4999999999960796     
   57.499999999972381        1.4999999999960796     
   58.499999999973411        1.4999999999960796     
   59.499999999974470        1.4999999999960796     
   60.499999999975550        1.4999999999960796     
   61.499999999976659        1.4999999999960796     
   62.499999999977788        1.4999999999960796     
   63.499999999978940        1.4999999999960796     
   64.499999999980105        1.4999999999960796     
   65.499999999981299        1.4999999999960796     
   66.499999999982521        1.4999999999960796     
   67.499999999983743        1.4999999999960796     
   68.499999999984993        1.4999999999960796     
   69.499999999986244        1.4999999999960796     
   70.499999999987509        1.4999999999960796     
   71.499999999988802        1.4999999999960796     
   72.499999999990081        1.4999999999960796     
   73.499999999991388        1.4999999999960796     
   74.499999999992696        1.4999999999960796     
   75.499999999994031        1.4999999999960796     
   76.499999999995339        1.4999999999960796     
   77.499999999996675        1.4999999999960796     
   78.499999999997996        1.4999999999960796     
   79.499999999999332        1.4999999999960796     
   80.500000000000668        1.4999999999960796     
   81.500000000002004        1.4999999999960796     
   82.500000000003325        1.4999999999960796     
   83.500000000004661        1.4999999999960796     
   84.500000000005969        1.4999999999960796     
   85.500000000007304        1.4999999999960796     
   86.500000000008612        1.4999999999960796     
   87.500000000009919        1.4999999999960796     
   88.500000000011198        1.4999999999960796     
   89.500000000012491        1.4999999999960796     
   90.500000000013756        1.4999999999960796     
   91.500000000015007        1.4999999999960796     
   92.500000000016257        1.4999999999960796     
   93.500000000017479        1.4999999999960796     
   94.500000000018701        1.4999999999960796     
   95.500000000019895        1.4999999999960796     
   96.500000000021060        1.4999999999960796     
   97.500000000022212        1.4999999999960796     
   98.500000000023334        1.4999999999960796     
   99.500000000024443        1.4999999999960796     
   100.50000000002552        1.4999999999960796     
   101.50000000002659        1.4999999999960796     
   102.50000000002763        1.4999999999960796     
   103.50000000002862        1.4999999999960796     
   104.50000000002959        1.4999999999960796     
   105.50000000003054        1.4999999999960796     
   106.50000000003145        1.4999999999960796     
   107.50000000003232        1.4999999999960796     
   108.50000000003317        1.4999999999960796     
   109.50000000003398        1.4999999999960796     
   110.50000000003476        1.4999999999960796     
   111.50000000003548        1.4999999999960796     
   112.50000000003618        1.4999999999960796     
   113.50000000003683        1.4999999999960796     
   114.50000000003743        1.4999999999960796     
   115.50000000003800        1.4999999999960796     
   116.50000000003853        1.4999999999960796     
   117.50000000003899        1.4999999999960796     
   118.50000000003942        1.4999999999960796     
   119.50000000003982        1.4999999999960796     
   120.50000000004015        1.4999999999960796     
   121.50000000004043        1.4999999999960796     
   122.50000000004066        1.4999999999960796     
   123.50000000004084        1.4999999999960796     
   124.50000000004097        1.4999999999960796     
   125.50000000004103        1.4999999999960796     
   126.50000000004104        1.4999999999960796     
   127.50000000004098        1.4999999999960796     
   128.50000000004087        1.4999999999960796     
   129.50000000004070        1.4999999999960796     
   130.50000000004047        1.4999999999960796     
   131.50000000004019        1.4999999999960796     
   132.50000000003985        1.4999999999960796     
   133.50000000003942        1.4999999999960796     
   134.50000000003894        1.4999999999960796     
   135.50000000003837        1.4999999999960796     
   136.50000000003774        1.4999999999960796     
   137.50000000003703        1.4999999999960796     
   138.50000000003627        1.4999999999960796     
   139.50000000003541        1.4999999999960796     
   140.50000000003450        1.4999999999960796     
   141.50000000003354        1.4999999999960796     
   142.50000000003246        1.4999999999960796     
   143.50000000003129        1.4999999999960796     
   144.50000000003007        1.4999999999960796     
   145.50000000002876        1.4999999999960796     
   146.50000000002737        1.4999999999960796     
   147.50000000002592        1.4999999999960796     
   148.50000000002436        1.4999999999960796     
   149.50000000002271        1.4999999999960796     
   150.50000000002098        1.4999999999960796     
   151.50000000001916        1.4999999999960796     
   152.50000000001728        1.4999999999960796     
   153.50000000001526        1.4999999999960796     
   154.50000000001319        1.4999999999960796     
   155.50000000001097        1.4999999999960796     
   156.50000000000870        1.4999999999960796     
   157.50000000000634        1.4999999999960796     
   158.50000000000387        1.4999999999960796     
   159.50000000000131        1.4999999999960796     
  0.49999999999869443        2.4999999999935119     
   1.4999999999961353        2.4999999999935119     
   2.4999999999936691        2.4999999999935119     
   3.4999999999912967        2.4999999999935119     
   4.4999999999890212        2.4999999999935119     
   5.4999999999868345        2.4999999999935119     
   6.4999999999847455        2.4999999999935119     
   7.4999999999827454        2.4999999999935119     
   8.4999999999808384        2.4999999999935119     
   9.4999999999790212        2.4999999999935119     
   10.499999999977288        2.4999999999935119     
   11.499999999975651        2.4999999999935119     
   12.499999999974097        2.4999999999935119     
   13.499999999972621        2.4999999999935119     
   14.499999999971234        2.4999999999935119     
   15.499999999969926        2.4999999999935119     
   16.499999999968697        2.4999999999935119     
   17.499999999967550        2.4999999999935119     
   18.499999999966477        2.4999999999935119     
   19.499999999965489        2.4999999999935119     
   20.499999999964565        2.4999999999935119     
   21.499999999963727        2.4999999999935119     
   22.499999999962959        2.4999999999935119     
   23.499999999962260        2.4999999999935119     
   24.499999999961631        2.4999999999935119     
   25.499999999961069        2.4999999999935119     
   26.499999999960583        2.4999999999935119     
   27.499999999960160        2.4999999999935119     
   28.499999999959805        2.4999999999935119     
   29.499999999959517        2.4999999999935119     
   30.499999999959286        2.4999999999935119     
   31.499999999959115        2.4999999999935119     
   32.499999999959009        2.4999999999935119     
   33.499999999958959        2.4999999999935119     
   34.499999999958973        2.4999999999935119     
   35.499999999959030        2.4999999999935119     
   36.499999999959158        2.4999999999935119     
   37.499999999959343        2.4999999999935119     
   38.499999999959570        2.4999999999935119     
   39.499999999959854        2.4999999999935119     
   40.499999999960181        2.4999999999935119     
   41.499999999960565        2.4999999999935119     
   42.499999999960998        2.4999999999935119     
   43.499999999961474        2.4999999999935119     
   44.499999999962000        2.4999999999935119     
   45.499999999962569        2.4999999999935119     
   46.499999999963180        2.4999999999935119     
   47.499999999963826        2.4999999999935119     
   48.499999999964515        2.4999999999935119     
   49.499999999965247        2.4999999999935119     
   50.499999999966022        2.4999999999935119     
   51.499999999966832        2.4999999999935119     
   52.499999999967670        2.4999999999935119     
   53.499999999968551        2.4999999999935119     
   54.499999999969461        2.4999999999935119     
   55.499999999970406        2.4999999999935119     
   56.499999999971379        2.4999999999935119     
   57.499999999972381        2.4999999999935119     
   58.499999999973411        2.4999999999935119     
   59.499999999974470        2.4999999999935119     
   60.499999999975550        2.4999999999935119     
   61.499999999976659        2.4999999999935119     
   62.499999999977788        2.4999999999935119     
   63.499999999978940        2.4999999999935119     
   64.499999999980105        2.4999999999935119     
   65.499999999981299        2.4999999999935119     
   66.499999999982521        2.4999999999935119     
   67.499999999983743        2.4999999999935119     
   68.499999999984993        2.4999999999935119     
   69.499999999986244        2.4999999999935119     
   70.499999999987509        2.4999999999935119     
   71.499999999988802        2.4999999999935119     
   72.499999999990081        2.4999999999935119     
   73.499999999991388        2.4999999999935119     
   74.499999999992696        2.4999999999935119     
   75.499999999994031        2.4999999999935119     
   76.499999999995339        2.4999999999935119     
   77.499999999996675        2.4999999999935119     
   78.499999999997996        2.4999999999935119     
   79.499999999999332        2.4999999999935119     
   80.500000000000668        2.4999999999935119     
   81.500000000002004        2.4999999999935119     
   82.500000000003325        2.4999999999935119     
   83.500000000004661        2.4999999999935119     
   84.500000000005969        2.4999999999935119     
   85.500000000007304        2.4999999999935119     
   86.500000000008612        2.4999999999935119     
   87.500000000009919        2.4999999999935119     
   88.500000000011198        2.4999999999935119     
   89.500000000012491        2.4999999999935119     
   90.500000000013756        2.4999999999935119     
   91.500000000015007        2.4999999999935119     
   92.500000000016257        2.4999999999935119     
   93.500000000017479        2.4999999999935119     
   94.500000000018701        2.4999999999935119     
   95.500000000019895        2.4999999999935119     
   96.500000000021060        2.4999999999935119     
   97.500000000022212        2.4999999999935119     
   98.500000000023334        2.4999999999935119     
   99.500000000024443        2.4999999999935119     
   100.50000000002552        2.4999999999935119     
   101.50000000002659        2.4999999999935119     
   102.50000000002763        2.4999999999935119     
   103.50000000002862        2.4999999999935119     
   104.50000000002959        2.4999999999935119     
   105.50000000003054        2.4999999999935119     
   106.50000000003145        2.4999999999935119     
   107.50000000003232        2.4999999999935119     
   108.50000000003317        2.4999999999935119     
   109.50000000003398        2.4999999999935119     
   110.50000000003476        2.4999999999935119     
   111.50000000003548        2.4999999999935119     
   112.50000000003618        2.4999999999935119     
   113.50000000003683        2.4999999999935119     
   114.50000000003743        2.4999999999935119     
   115.50000000003800        2.4999999999935119     
   116.50000000003853        2.4999999999935119     
   117.50000000003899        2.4999999999935119     
   118.50000000003942        2.4999999999935119     
   119.50000000003982        2.4999999999935119     
   120.50000000004015        2.4999999999935119     
   121.50000000004043        2.4999999999935119     
   122.50000000004066        2.4999999999935119     
   123.50000000004084        2.4999999999935119     
   124.50000000004097        2.4999999999935119     
   125.50000000004103        2.4999999999935119     
   126.50000000004104        2.4999999999935119     
   127.50000000004098        2.4999999999935119     
   128.50000000004087        2.4999999999935119     
   129.50000000004070        2.4999999999935119     
   130.50000000004047        2.4999999999935119     
   131.50000000004019        2.4999999999935119     
   132.50000000003985        2.4999999999935119     
   133.50000000003942        2.4999999999935119     
   134.50000000003894        2.4999999999935119     
   135.50000000003837        2.4999999999935119     
   136.50000000003774        2.4999999999935119     
   137.50000000003703        2.4999999999935119     
   138.50000000003627        2.4999999999935119     
   139.50000000003541        2.4999999999935119     
   140.50000000003450        2.4999999999935119     
   141.50000000003354        2.4999999999935119     
   142.50000000003246        2.4999999999935119     
   143.50000000003129        2.4999999999935119     
   144.50000000003007        2.4999999999935119     
   145.50000000002876        2.4999999999935119     
   146.50000000002737        2.4999999999935119     
   147.50000000002592        2.4999999999935119     
   148.50000000002436        2.4999999999935119     
   149.50000000002271        2.4999999999935119     
   150.50000000002098        2.4999999999935119     
   151.50000000001916        2.4999999999935119     
   152.50000000001728        2.4999999999935119     
   153.50000000001526        2.4999999999935119     
   154.50000000001319        2.4999999999935119     
   155.50000000001097        2.4999999999935119     
   156.50000000000870        2.4999999999935119     
   157.50000000000634        2.4999999999935119     
   158.50000000000387        2.4999999999935119     
   159.50000000000131        2.4999999999935119     
  0.49999999999869443        3.4999999999910125     
   1.4999999999961353        3.4999999999910125     
   2.4999999999936691        3.4999999999910125     
   3.4999999999912967        3.4999999999910125     
   4.4999999999890212        3.4999999999910125     
   5.4999999999868345        3.4999999999910125     
   6.4999999999847455        3.4999999999910125     
   7.4999999999827454        3.4999999999910125     
   8.4999999999808384        3.4999999999910125     
   9.4999999999790212        3.4999999999910125     
   10.499999999977288        3.4999999999910125     
   11.499999999975651        3.4999999999910125     
   12.499999999974097        3.4999999999910125     
   13.499999999972621        3.4999999999910125     
   14.499999999971234        3.4999999999910125     
   15.499999999969926        3.4999999999910125     
   16.499999999968697        3.4999999999910125     
   17.499999999967550        3.4999999999910125     
   18.499999999966477        3.4999999999910125     
   19.499999999965489        3.4999999999910125     
   20.499999999964565        3.4999999999910125     
   21.499999999963727        3.4999999999910125     
   22.499999999962959        3.4999999999910125     
   23.499999999962260        3.4999999999910125     
   24.499999999961631        3.4999999999910125     
   25.499999999961069        3.4999999999910125     
   26.499999999960583        3.4999999999910125     
   27.499999999960160        3.4999999999910125     
   28.499999999959805        3.4999999999910125     
   29.499999999959517        3.4999999999910125     
   30.499999999959286        3.4999999999910125     
   31.499999999959115        3.4999999999910125     
   32.499999999959009        3.4999999999910125     
   33.499999999958959        3.4999999999910125     
   34.499999999958973        3.4999999999910125     
   35.499999999959030        3.4999999999910125     
   36.499999999959158        3.4999999999910125     
   37.499999999959343        3.4999999999910125     
   38.499999999959570        3.4999999999910125     
   39.499999999959854        3.4999999999910125     
   40.499999999960181        3.4999999999910125     
   41.499999999960565        3.4999999999910125     
   42.499999999960998        3.4999999999910125     
   43.499999999961474        3.4999999999910125     
   44.499999999962000        3.4999999999910125     
   45.499999999962569        3.4999999999910125     
   46.499999999963180        3.4999999999910125     
   47.499999999963826        3.4999999999910125     
   48.499999999964515        3.4999999999910125     
   49.499999999965247        3.4999999999910125     
   50.499999999966022        3.4999999999910125     
   51.499999999966832        3.4999999999910125     
   52.499999999967670        3.4999999999910125     
   53.499999999968551        3.4999999999910125     
   54.499999999969461        3.4999999999910125     
   55.499999999970406        3.4999999999910125     
   56.499999999971379        3.4999999999910125     
   57.499999999972381        3.4999999999910125     
   58.499999999973411        3.4999999999910125     
   59.499999999974470        3.4999999999910125     
   60.499999999975550        3.4999999999910125     
   61.499999999976659        3.4999999999910125     
   62.499999999977788        3.4999999999910125     
   63.499999999978940        3.4999999999910125     
   64.499999999980105        3.4999999999910125     
   65.499999999981299        3.4999999999910125     
   66.499999999982521        3.4999999999910125     
   67.499999999983743        3.4999999999910125     
   68.499999999984993        3.4999999999910125     
   69.499999999986244        3.4999999999910125     
   70.499999999987509        3.4999999999910125     
   71.499999999988802        3.4999999999910125     
   72.499999999990081        3.4999999999910125     
   73.499999999991388        3.4999999999910125     