 variables= "theta" , "Weqs" , "Heqs"
 zone t="present"
   90.000000000000000       0.64999194155193307       0.64999193492521856     
