 variables= "theta" , "Weqs" , "Heqs"
 zone t="present"
   100.00000000000000        3.9799507449797775       -4.9999380119379469E-003
