 variables= "x","y", 
 zone i=         100 j=         100 F=POINT
   4.9999999987063648E-003   4.9999999987063648E-003
   1.4999999996197569E-002   4.9999999987063648E-003
   2.4999999993843950E-002   4.9999999987063648E-003
   3.4999999991642328E-002   4.9999999987063648E-003
   4.4999999989589576E-002   4.9999999987063648E-003
   5.4999999987682388E-002   4.9999999987063648E-003
   6.4999999985917586E-002   4.9999999987063648E-003
   7.4999999984291993E-002   4.9999999987063648E-003
   8.4999999982802388E-002   4.9999999987063648E-003
   9.4999999981445551E-002   4.9999999987063648E-003
  0.10499999998021832        4.9999999987063648E-003
  0.11499999997911757        4.9999999987063648E-003
  0.12499999997813997        4.9999999987063648E-003
  0.13499999997728235        4.9999999987063648E-003
  0.14499999997654156        4.9999999987063648E-003
  0.15499999997591435        4.9999999987063648E-003
  0.16499999997539755        4.9999999987063648E-003
  0.17499999997498800        4.9999999987063648E-003
  0.18499999997468239        4.9999999987063648E-003
  0.19499999997447759        4.9999999987063648E-003
  0.20499999997437041        4.9999999987063648E-003
  0.21499999997435759        4.9999999987063648E-003
  0.22499999997443595        4.9999999987063648E-003
  0.23499999997460236        4.9999999987063648E-003
  0.24499999997485356        4.9999999987063648E-003
  0.25499999997518635        4.9999999987063648E-003
  0.26499999997559753        4.9999999987063648E-003
  0.27499999997608393        4.9999999987063648E-003
  0.28499999997664238        4.9999999987063648E-003
  0.29499999997726956        4.9999999987063648E-003
  0.30499999997796234        4.9999999987063648E-003
  0.31499999997871758        4.9999999987063648E-003
  0.32499999997953199        4.9999999987063648E-003
  0.33499999998040242        4.9999999987063648E-003
  0.34499999998132558        4.9999999987063648E-003
  0.35499999998229836        4.9999999987063648E-003
  0.36499999998331756        4.9999999987063648E-003
  0.37499999998437994        4.9999999987063648E-003
  0.38499999998548240        4.9999999987063648E-003
  0.39499999998662161        4.9999999987063648E-003
  0.40499999998779440        4.9999999987063648E-003
  0.41499999998899761        4.9999999987063648E-003
  0.42499999999022797        4.9999999987063648E-003
  0.43499999999148242        4.9999999987063648E-003
  0.44499999999275763        4.9999999987063648E-003
  0.45499999999405039        4.9999999987063648E-003
  0.46499999999535757        4.9999999987063648E-003
  0.47499999999667597        4.9999999987063648E-003
  0.48499999999800242        4.9999999987063648E-003
  0.49499999999933364        4.9999999987063648E-003
  0.50500000000066636        4.9999999987063648E-003
  0.51500000000199753        4.9999999987063648E-003
  0.52500000000332392        4.9999999987063648E-003
  0.53500000000464243        4.9999999987063648E-003
  0.54500000000594961        4.9999999987063648E-003
  0.55500000000724237        4.9999999987063648E-003
  0.56500000000851758        4.9999999987063648E-003
  0.57500000000977192        4.9999999987063648E-003
  0.58500000001100239        4.9999999987063648E-003
  0.59500000001220565        4.9999999987063648E-003
  0.60500000001337839        4.9999999987063648E-003
  0.61500000001451771        4.9999999987063648E-003
  0.62500000001562006        4.9999999987063648E-003
  0.63500000001668244        4.9999999987063648E-003
  0.64500000001770164        4.9999999987063648E-003
  0.65500000001867442        4.9999999987063648E-003
  0.66500000001959758        4.9999999987063648E-003
  0.67500000002046801        4.9999999987063648E-003
  0.68500000002128247        4.9999999987063648E-003
  0.69500000002203766        4.9999999987063648E-003
  0.70500000002273044        4.9999999987063648E-003
  0.71500000002335762        4.9999999987063648E-003
  0.72500000002391607        4.9999999987063648E-003
  0.73500000002440236        4.9999999987063648E-003
  0.74500000002481359        4.9999999987063648E-003
  0.75500000002514644        4.9999999987063648E-003
  0.76500000002539759        4.9999999987063648E-003
  0.77500000002556402        4.9999999987063648E-003
  0.78500000002564241        4.9999999987063648E-003
  0.79500000002562965        4.9999999987063648E-003
  0.80500000002552241        4.9999999987063648E-003
  0.81500000002531758        4.9999999987063648E-003
  0.82500000002501195        4.9999999987063648E-003
  0.83500000002460251        4.9999999987063648E-003
  0.84500000002408560        4.9999999987063648E-003
  0.85500000002345844        4.9999999987063648E-003
  0.86500000002271760        4.9999999987063648E-003
  0.87500000002186007        4.9999999987063648E-003
  0.88500000002088242        4.9999999987063648E-003
  0.89500000001978175        4.9999999987063648E-003
  0.90500000001855452        4.9999999987063648E-003
  0.91500000001719761        4.9999999987063648E-003
  0.92500000001570792        4.9999999987063648E-003
  0.93500000001408234        4.9999999987063648E-003
  0.94500000001231754        4.9999999987063648E-003
  0.95500000001041041        4.9999999987063648E-003
  0.96500000000835762        4.9999999987063648E-003
  0.97500000000615605        4.9999999987063648E-003
  0.98500000000380239        4.9999999987063648E-003
  0.99500000000129363        4.9999999987063648E-003
   4.9999999987063648E-003   1.4999999996197569E-002
   1.4999999996197569E-002   1.4999999996197569E-002
   2.4999999993843950E-002   1.4999999996197569E-002
   3.4999999991642328E-002   1.4999999996197569E-002
   4.4999999989589576E-002   1.4999999996197569E-002
   5.4999999987682388E-002   1.4999999996197569E-002
   6.4999999985917586E-002   1.4999999996197569E-002
   7.4999999984291993E-002   1.4999999996197569E-002
   8.4999999982802388E-002   1.4999999996197569E-002
   9.4999999981445551E-002   1.4999999996197569E-002
  0.10499999998021832        1.4999999996197569E-002
  0.11499999997911757        1.4999999996197569E-002
  0.12499999997813997        1.4999999996197569E-002
  0.13499999997728235        1.4999999996197569E-002
  0.14499999997654156        1.4999999996197569E-002
  0.15499999997591435        1.4999999996197569E-002
  0.16499999997539755        1.4999999996197569E-002
  0.17499999997498800        1.4999999996197569E-002
  0.18499999997468239        1.4999999996197569E-002
  0.19499999997447759        1.4999999996197569E-002
  0.20499999997437041        1.4999999996197569E-002
  0.21499999997435759        1.4999999996197569E-002
  0.22499999997443595        1.4999999996197569E-002
  0.23499999997460236        1.4999999996197569E-002
  0.24499999997485356        1.4999999996197569E-002
  0.25499999997518635        1.4999999996197569E-002
  0.26499999997559753        1.4999999996197569E-002
  0.27499999997608393        1.4999999996197569E-002
  0.28499999997664238        1.4999999996197569E-002
  0.29499999997726956        1.4999999996197569E-002
  0.30499999997796234        1.4999999996197569E-002
  0.31499999997871758        1.4999999996197569E-002
  0.32499999997953199        1.4999999996197569E-002
  0.33499999998040242        1.4999999996197569E-002
  0.34499999998132558        1.4999999996197569E-002
  0.35499999998229836        1.4999999996197569E-002
  0.36499999998331756        1.4999999996197569E-002
  0.37499999998437994        1.4999999996197569E-002
  0.38499999998548240        1.4999999996197569E-002
  0.39499999998662161        1.4999999996197569E-002
  0.40499999998779440        1.4999999996197569E-002
  0.41499999998899761        1.4999999996197569E-002
  0.42499999999022797        1.4999999996197569E-002
  0.43499999999148242        1.4999999996197569E-002
  0.44499999999275763        1.4999999996197569E-002
  0.45499999999405039        1.4999999996197569E-002
  0.46499999999535757        1.4999999996197569E-002
  0.47499999999667597        1.4999999996197569E-002
  0.48499999999800242        1.4999999996197569E-002
  0.49499999999933364        1.4999999996197569E-002
  0.50500000000066636        1.4999999996197569E-002
  0.51500000000199753        1.4999999996197569E-002
  0.52500000000332392        1.4999999996197569E-002
  0.53500000000464243        1.4999999996197569E-002
  0.54500000000594961        1.4999999996197569E-002
  0.55500000000724237        1.4999999996197569E-002
  0.56500000000851758        1.4999999996197569E-002
  0.57500000000977192        1.4999999996197569E-002
  0.58500000001100239        1.4999999996197569E-002
  0.59500000001220565        1.4999999996197569E-002
  0.60500000001337839        1.4999999996197569E-002
  0.61500000001451771        1.4999999996197569E-002
  0.62500000001562006        1.4999999996197569E-002
  0.63500000001668244        1.4999999996197569E-002
  0.64500000001770164        1.4999999996197569E-002
  0.65500000001867442        1.4999999996197569E-002
  0.66500000001959758        1.4999999996197569E-002
  0.67500000002046801        1.4999999996197569E-002
  0.68500000002128247        1.4999999996197569E-002
  0.69500000002203766        1.4999999996197569E-002
  0.70500000002273044        1.4999999996197569E-002
  0.71500000002335762        1.4999999996197569E-002
  0.72500000002391607        1.4999999996197569E-002
  0.73500000002440236        1.4999999996197569E-002
  0.74500000002481359        1.4999999996197569E-002
  0.75500000002514644        1.4999999996197569E-002
  0.76500000002539759        1.4999999996197569E-002
  0.77500000002556402        1.4999999996197569E-002
  0.78500000002564241        1.4999999996197569E-002
  0.79500000002562965        1.4999999996197569E-002
  0.80500000002552241        1.4999999996197569E-002
  0.81500000002531758        1.4999999996197569E-002
  0.82500000002501195        1.4999999996197569E-002
  0.83500000002460251        1.4999999996197569E-002
  0.84500000002408560        1.4999999996197569E-002
  0.85500000002345844        1.4999999996197569E-002
  0.86500000002271760        1.4999999996197569E-002
  0.87500000002186007        1.4999999996197569E-002
  0.88500000002088242        1.4999999996197569E-002
  0.89500000001978175        1.4999999996197569E-002
  0.90500000001855452        1.4999999996197569E-002
  0.91500000001719761        1.4999999996197569E-002
  0.92500000001570792        1.4999999996197569E-002
  0.93500000001408234        1.4999999996197569E-002
  0.94500000001231754        1.4999999996197569E-002
  0.95500000001041041        1.4999999996197569E-002
  0.96500000000835762        1.4999999996197569E-002
  0.97500000000615605        1.4999999996197569E-002
  0.98500000000380239        1.4999999996197569E-002
  0.99500000000129363        1.4999999996197569E-002
   4.9999999987063648E-003   2.4999999993843950E-002
   1.4999999996197569E-002   2.4999999993843950E-002
   2.4999999993843950E-002   2.4999999993843950E-002
   3.4999999991642328E-002   2.4999999993843950E-002
   4.4999999989589576E-002   2.4999999993843950E-002
   5.4999999987682388E-002   2.4999999993843950E-002
   6.4999999985917586E-002   2.4999999993843950E-002
   7.4999999984291993E-002   2.4999999993843950E-002
   8.4999999982802388E-002   2.4999999993843950E-002
   9.4999999981445551E-002   2.4999999993843950E-002
  0.10499999998021832        2.4999999993843950E-002
  0.11499999997911757        2.4999999993843950E-002
  0.12499999997813997        2.4999999993843950E-002
  0.13499999997728235        2.4999999993843950E-002
  0.14499999997654156        2.4999999993843950E-002
  0.15499999997591435        2.4999999993843950E-002
  0.16499999997539755        2.4999999993843950E-002
  0.17499999997498800        2.4999999993843950E-002
  0.18499999997468239        2.4999999993843950E-002
  0.19499999997447759        2.4999999993843950E-002
  0.20499999997437041        2.4999999993843950E-002
  0.21499999997435759        2.4999999993843950E-002
  0.22499999997443595        2.4999999993843950E-002
  0.23499999997460236        2.4999999993843950E-002
  0.24499999997485356        2.4999999993843950E-002
  0.25499999997518635        2.4999999993843950E-002
  0.26499999997559753        2.4999999993843950E-002
  0.27499999997608393        2.4999999993843950E-002
  0.28499999997664238        2.4999999993843950E-002
  0.29499999997726956        2.4999999993843950E-002
  0.30499999997796234        2.4999999993843950E-002
  0.31499999997871758        2.4999999993843950E-002
  0.32499999997953199        2.4999999993843950E-002
  0.33499999998040242        2.4999999993843950E-002
  0.34499999998132558        2.4999999993843950E-002
  0.35499999998229836        2.4999999993843950E-002
  0.36499999998331756        2.4999999993843950E-002
  0.37499999998437994        2.4999999993843950E-002
  0.38499999998548240        2.4999999993843950E-002
  0.39499999998662161        2.4999999993843950E-002
  0.40499999998779440        2.4999999993843950E-002
  0.41499999998899761        2.4999999993843950E-002
  0.42499999999022797        2.4999999993843950E-002
  0.43499999999148242        2.4999999993843950E-002
  0.44499999999275763        2.4999999993843950E-002
  0.45499999999405039        2.4999999993843950E-002
  0.46499999999535757        2.4999999993843950E-002
  0.47499999999667597        2.4999999993843950E-002
  0.48499999999800242        2.4999999993843950E-002
  0.49499999999933364        2.4999999993843950E-002
  0.50500000000066636        2.4999999993843950E-002
  0.51500000000199753        2.4999999993843950E-002
  0.52500000000332392        2.4999999993843950E-002
  0.53500000000464243        2.4999999993843950E-002
  0.54500000000594961        2.4999999993843950E-002
  0.55500000000724237        2.4999999993843950E-002
  0.56500000000851758        2.4999999993843950E-002
  0.57500000000977192        2.4999999993843950E-002
  0.58500000001100239        2.4999999993843950E-002
  0.59500000001220565        2.4999999993843950E-002
  0.60500000001337839        2.4999999993843950E-002
  0.61500000001451771        2.4999999993843950E-002
  0.62500000001562006        2.4999999993843950E-002
  0.63500000001668244        2.4999999993843950E-002
  0.64500000001770164        2.4999999993843950E-002
  0.65500000001867442        2.4999999993843950E-002
  0.66500000001959758        2.4999999993843950E-002
  0.67500000002046801        2.4999999993843950E-002
  0.68500000002128247        2.4999999993843950E-002
  0.69500000002203766        2.4999999993843950E-002
  0.70500000002273044        2.4999999993843950E-002
  0.71500000002335762        2.4999999993843950E-002
  0.72500000002391607        2.4999999993843950E-002
  0.73500000002440236        2.4999999993843950E-002
  0.74500000002481359        2.4999999993843950E-002
  0.75500000002514644        2.4999999993843950E-002
  0.76500000002539759        2.4999999993843950E-002
  0.77500000002556402        2.4999999993843950E-002
  0.78500000002564241        2.4999999993843950E-002
  0.79500000002562965        2.4999999993843950E-002
  0.80500000002552241        2.4999999993843950E-002
  0.81500000002531758        2.4999999993843950E-002
  0.82500000002501195        2.4999999993843950E-002
  0.83500000002460251        2.4999999993843950E-002
  0.84500000002408560        2.4999999993843950E-002
  0.85500000002345844        2.4999999993843950E-002
  0.86500000002271760        2.4999999993843950E-002
  0.87500000002186007        2.4999999993843950E-002
  0.88500000002088242        2.4999999993843950E-002
  0.89500000001978175        2.4999999993843950E-002
  0.90500000001855452        2.4999999993843950E-002
  0.91500000001719761        2.4999999993843950E-002
  0.92500000001570792        2.4999999993843950E-002
  0.93500000001408234        2.4999999993843950E-002
  0.94500000001231754        2.4999999993843950E-002
  0.95500000001041041        2.4999999993843950E-002
  0.96500000000835762        2.4999999993843950E-002
  0.97500000000615605        2.4999999993843950E-002
  0.98500000000380239        2.4999999993843950E-002
  0.99500000000129363        2.4999999993843950E-002
   4.9999999987063648E-003   3.4999999991642328E-002
   1.4999999996197569E-002   3.4999999991642328E-002
   2.4999999993843950E-002   3.4999999991642328E-002
   3.4999999991642328E-002   3.4999999991642328E-002
   4.4999999989589576E-002   3.4999999991642328E-002
   5.4999999987682388E-002   3.4999999991642328E-002
   6.4999999985917586E-002   3.4999999991642328E-002
   7.4999999984291993E-002   3.4999999991642328E-002
   8.4999999982802388E-002   3.4999999991642328E-002
   9.4999999981445551E-002   3.4999999991642328E-002
  0.10499999998021832        3.4999999991642328E-002
  0.11499999997911757        3.4999999991642328E-002
  0.12499999997813997        3.4999999991642328E-002
  0.13499999997728235        3.4999999991642328E-002
  0.14499999997654156        3.4999999991642328E-002
  0.15499999997591435        3.4999999991642328E-002
  0.16499999997539755        3.4999999991642328E-002
  0.17499999997498800        3.4999999991642328E-002
  0.18499999997468239        3.4999999991642328E-002
  0.19499999997447759        3.4999999991642328E-002
  0.20499999997437041        3.4999999991642328E-002
  0.21499999997435759        3.4999999991642328E-002
  0.22499999997443595        3.4999999991642328E-002
  0.23499999997460236        3.4999999991642328E-002
  0.24499999997485356        3.4999999991642328E-002
  0.25499999997518635        3.4999999991642328E-002
  0.26499999997559753        3.4999999991642328E-002
  0.27499999997608393        3.4999999991642328E-002
  0.28499999997664238        3.4999999991642328E-002
  0.29499999997726956        3.4999999991642328E-002
  0.30499999997796234        3.4999999991642328E-002
  0.31499999997871758        3.4999999991642328E-002
  0.32499999997953199        3.4999999991642328E-002
  0.33499999998040242        3.4999999991642328E-002
  0.34499999998132558        3.4999999991642328E-002
  0.35499999998229836        3.4999999991642328E-002
  0.36499999998331756        3.4999999991642328E-002
  0.37499999998437994        3.4999999991642328E-002
  0.38499999998548240        3.4999999991642328E-002
  0.39499999998662161        3.4999999991642328E-002
  0.40499999998779440        3.4999999991642328E-002
  0.41499999998899761        3.4999999991642328E-002
  0.42499999999022797        3.4999999991642328E-002
  0.43499999999148242        3.4999999991642328E-002
  0.44499999999275763        3.4999999991642328E-002
  0.45499999999405039        3.4999999991642328E-002
  0.46499999999535757        3.4999999991642328E-002
  0.47499999999667597        3.4999999991642328E-002
  0.48499999999800242        3.4999999991642328E-002
  0.49499999999933364        3.4999999991642328E-002
  0.50500000000066636        3.4999999991642328E-002
  0.51500000000199753        3.4999999991642328E-002
  0.52500000000332392        3.4999999991642328E-002
  0.53500000000464243        3.4999999991642328E-002
  0.54500000000594961        3.4999999991642328E-002
  0.55500000000724237        3.4999999991642328E-002
  0.56500000000851758        3.4999999991642328E-002
  0.57500000000977192        3.4999999991642328E-002
  0.58500000001100239        3.4999999991642328E-002
  0.59500000001220565        3.4999999991642328E-002
  0.60500000001337839        3.4999999991642328E-002
  0.61500000001451771        3.4999999991642328E-002
  0.62500000001562006        3.4999999991642328E-002
  0.63500000001668244        3.4999999991642328E-002
  0.64500000001770164        3.4999999991642328E-002
  0.65500000001867442        3.4999999991642328E-002
  0.66500000001959758        3.4999999991642328E-002
  0.67500000002046801        3.4999999991642328E-002
  0.68500000002128247        3.4999999991642328E-002
  0.69500000002203766        3.4999999991642328E-002
  0.70500000002273044        3.4999999991642328E-002
  0.71500000002335762        3.4999999991642328E-002
  0.72500000002391607        3.4999999991642328E-002
  0.73500000002440236        3.4999999991642328E-002
  0.74500000002481359        3.4999999991642328E-002
  0.75500000002514644        3.4999999991642328E-002
  0.76500000002539759        3.4999999991642328E-002
  0.77500000002556402        3.4999999991642328E-002
  0.78500000002564241        3.4999999991642328E-002
  0.79500000002562965        3.4999999991642328E-002
  0.80500000002552241        3.4999999991642328E-002
  0.81500000002531758        3.4999999991642328E-002
  0.82500000002501195        3.4999999991642328E-002
  0.83500000002460251        3.4999999991642328E-002
  0.84500000002408560        3.4999999991642328E-002
  0.85500000002345844        3.4999999991642328E-002
  0.86500000002271760        3.4999999991642328E-002
  0.87500000002186007        3.4999999991642328E-002
  0.88500000002088242        3.4999999991642328E-002
  0.89500000001978175        3.4999999991642328E-002
  0.90500000001855452        3.4999999991642328E-002
  0.91500000001719761        3.4999999991642328E-002
  0.92500000001570792        3.4999999991642328E-002
  0.93500000001408234        3.4999999991642328E-002
  0.94500000001231754        3.4999999991642328E-002
  0.95500000001041041        3.4999999991642328E-002
  0.96500000000835762        3.4999999991642328E-002
  0.97500000000615605        3.4999999991642328E-002
  0.98500000000380239        3.4999999991642328E-002
  0.99500000000129363        3.4999999991642328E-002
   4.9999999987063648E-003   4.4999999989589576E-002
   1.4999999996197569E-002   4.4999999989589576E-002
   2.4999999993843950E-002   4.4999999989589576E-002
   3.4999999991642328E-002   4.4999999989589576E-002
   4.4999999989589576E-002   4.4999999989589576E-002
   5.4999999987682388E-002   4.4999999989589576E-002
   6.4999999985917586E-002   4.4999999989589576E-002
   7.4999999984291993E-002   4.4999999989589576E-002
   8.4999999982802388E-002   4.4999999989589576E-002
   9.4999999981445551E-002   4.4999999989589576E-002
  0.10499999998021832        4.4999999989589576E-002
  0.11499999997911757        4.4999999989589576E-002
  0.12499999997813997        4.4999999989589576E-002
  0.13499999997728235        4.4999999989589576E-002
  0.14499999997654156        4.4999999989589576E-002
  0.15499999997591435        4.4999999989589576E-002
  0.16499999997539755        4.4999999989589576E-002
  0.17499999997498800        4.4999999989589576E-002
  0.18499999997468239        4.4999999989589576E-002
  0.19499999997447759        4.4999999989589576E-002
  0.20499999997437041        4.4999999989589576E-002
  0.21499999997435759        4.4999999989589576E-002
  0.22499999997443595        4.4999999989589576E-002
  0.23499999997460236        4.4999999989589576E-002
  0.24499999997485356        4.4999999989589576E-002
  0.25499999997518635        4.4999999989589576E-002
  0.26499999997559753        4.4999999989589576E-002
  0.27499999997608393        4.4999999989589576E-002
  0.28499999997664238        4.4999999989589576E-002
  0.29499999997726956        4.4999999989589576E-002
  0.30499999997796234        4.4999999989589576E-002
  0.31499999997871758        4.4999999989589576E-002
  0.32499999997953199        4.4999999989589576E-002
  0.33499999998040242        4.4999999989589576E-002
  0.34499999998132558        4.4999999989589576E-002
  0.35499999998229836        4.4999999989589576E-002
  0.36499999998331756        4.4999999989589576E-002
  0.37499999998437994        4.4999999989589576E-002
  0.38499999998548240        4.4999999989589576E-002
  0.39499999998662161        4.4999999989589576E-002
  0.40499999998779440        4.4999999989589576E-002
  0.41499999998899761        4.4999999989589576E-002
  0.42499999999022797        4.4999999989589576E-002
  0.43499999999148242        4.4999999989589576E-002
  0.44499999999275763        4.4999999989589576E-002
  0.45499999999405039        4.4999999989589576E-002
  0.46499999999535757        4.4999999989589576E-002
  0.47499999999667597        4.4999999989589576E-002
  0.48499999999800242        4.4999999989589576E-002
  0.49499999999933364        4.4999999989589576E-002
  0.50500000000066636        4.4999999989589576E-002
  0.51500000000199753        4.4999999989589576E-002
  0.52500000000332392        4.4999999989589576E-002
  0.53500000000464243        4.4999999989589576E-002
  0.54500000000594961        4.4999999989589576E-002
  0.55500000000724237        4.4999999989589576E-002
  0.56500000000851758        4.4999999989589576E-002
  0.57500000000977192        4.4999999989589576E-002
  0.58500000001100239        4.4999999989589576E-002
  0.59500000001220565        4.4999999989589576E-002
  0.60500000001337839        4.4999999989589576E-002
  0.61500000001451771        4.4999999989589576E-002
  0.62500000001562006        4.4999999989589576E-002
  0.63500000001668244        4.4999999989589576E-002
  0.64500000001770164        4.4999999989589576E-002
  0.65500000001867442        4.4999999989589576E-002
  0.66500000001959758        4.4999999989589576E-002
  0.67500000002046801        4.4999999989589576E-002
  0.68500000002128247        4.4999999989589576E-002
  0.69500000002203766        4.4999999989589576E-002
  0.70500000002273044        4.4999999989589576E-002
  0.71500000002335762        4.4999999989589576E-002
  0.72500000002391607        4.4999999989589576E-002
  0.73500000002440236        4.4999999989589576E-002
  0.74500000002481359        4.4999999989589576E-002
  0.75500000002514644        4.4999999989589576E-002
  0.76500000002539759        4.4999999989589576E-002
  0.77500000002556402        4.4999999989589576E-002
  0.78500000002564241        4.4999999989589576E-002
  0.79500000002562965        4.4999999989589576E-002
  0.80500000002552241        4.4999999989589576E-002
  0.81500000002531758        4.4999999989589576E-002
  0.82500000002501195        4.4999999989589576E-002
  0.83500000002460251        4.4999999989589576E-002
  0.84500000002408560        4.4999999989589576E-002
  0.85500000002345844        4.4999999989589576E-002
  0.86500000002271760        4.4999999989589576E-002
  0.87500000002186007        4.4999999989589576E-002
  0.88500000002088242        4.4999999989589576E-002
  0.89500000001978175        4.4999999989589576E-002
  0.90500000001855452        4.4999999989589576E-002
  0.91500000001719761        4.4999999989589576E-002
  0.92500000001570792        4.4999999989589576E-002
  0.93500000001408234        4.4999999989589576E-002
  0.94500000001231754        4.4999999989589576E-002
  0.95500000001041041        4.4999999989589576E-002
  0.96500000000835762        4.4999999989589576E-002
  0.97500000000615605        4.4999999989589576E-002
  0.98500000000380239        4.4999999989589576E-002
  0.99500000000129363        4.4999999989589576E-002
   4.9999999987063648E-003   5.4999999987682388E-002
   1.4999999996197569E-002   5.4999999987682388E-002
   2.4999999993843950E-002   5.4999999987682388E-002
   3.4999999991642328E-002   5.4999999987682388E-002
   4.4999999989589576E-002   5.4999999987682388E-002
   5.4999999987682388E-002   5.4999999987682388E-002
   6.4999999985917586E-002   5.4999999987682388E-002
   7.4999999984291993E-002   5.4999999987682388E-002
   8.4999999982802388E-002   5.4999999987682388E-002
   9.4999999981445551E-002   5.4999999987682388E-002
  0.10499999998021832        5.4999999987682388E-002
  0.11499999997911757        5.4999999987682388E-002
  0.12499999997813997        5.4999999987682388E-002
  0.13499999997728235        5.4999999987682388E-002
  0.14499999997654156        5.4999999987682388E-002
  0.15499999997591435        5.4999999987682388E-002
  0.16499999997539755        5.4999999987682388E-002
  0.17499999997498800        5.4999999987682388E-002
  0.18499999997468239        5.4999999987682388E-002
  0.19499999997447759        5.4999999987682388E-002
  0.20499999997437041        5.4999999987682388E-002
  0.21499999997435759        5.4999999987682388E-002
  0.22499999997443595        5.4999999987682388E-002
  0.23499999997460236        5.4999999987682388E-002
  0.24499999997485356        5.4999999987682388E-002
  0.25499999997518635        5.4999999987682388E-002
  0.26499999997559753        5.4999999987682388E-002
  0.27499999997608393        5.4999999987682388E-002
  0.28499999997664238        5.4999999987682388E-002
  0.29499999997726956        5.4999999987682388E-002
  0.30499999997796234        5.4999999987682388E-002
  0.31499999997871758        5.4999999987682388E-002
  0.32499999997953199        5.4999999987682388E-002
  0.33499999998040242        5.4999999987682388E-002
  0.34499999998132558        5.4999999987682388E-002
  0.35499999998229836        5.4999999987682388E-002
  0.36499999998331756        5.4999999987682388E-002
  0.37499999998437994        5.4999999987682388E-002
  0.38499999998548240        5.4999999987682388E-002
  0.39499999998662161        5.4999999987682388E-002
  0.40499999998779440        5.4999999987682388E-002
  0.41499999998899761        5.4999999987682388E-002
  0.42499999999022797        5.4999999987682388E-002
  0.43499999999148242        5.4999999987682388E-002
  0.44499999999275763        5.4999999987682388E-002
  0.45499999999405039        5.4999999987682388E-002
  0.46499999999535757        5.4999999987682388E-002
  0.47499999999667597        5.4999999987682388E-002
  0.48499999999800242        5.4999999987682388E-002
  0.49499999999933364        5.4999999987682388E-002
  0.50500000000066636        5.4999999987682388E-002
  0.51500000000199753        5.4999999987682388E-002
  0.52500000000332392        5.4999999987682388E-002
  0.53500000000464243        5.4999999987682388E-002